25
Lattice="25.605137788558736 0.0 0.0 0.0 24.94760060518851 0.0 0.0 0.0 24.018216286516797" Properties=species:S:1:pos:R:3:forces:R:3 mode=1 frequency_thz=-1.1287008677013535 interpolation_step=0 pbc="T T T"
C       10.69316276      11.83129959      10.86572855      -0.00374524       0.00353084       0.00192029
C       11.63531026      11.38210680      11.99471298      -0.00019809       0.00097371      -0.00194529
C       10.84822897      10.86208739      13.20918893       0.00379336      -0.00321043      -0.00104689
N       12.59670645      12.43579011      12.36905047      -0.00001887       0.00077186      -0.00177625
C       14.03679697      12.14951164      12.10301101      -0.00001971       0.00015022      -0.00113452
C       14.51199153      10.94148374      12.91975461      -0.00001789       0.00302582       0.00312229
C       14.28030839      11.97532489      10.59854618      -0.00019231      -0.00503384      -0.00055802
Si      12.11908018      14.02204490      12.94144426       0.00019216       0.00003969       0.00038904
H       10.10805565      10.95967279      10.53845823      -0.00270224       0.00364158      -0.00027130
H       11.25233785      12.22357266      10.00403250      -0.00625939       0.00809929       0.00220668
H        9.98453511      12.60225532      11.20271941      -0.00461528       0.00083025       0.00661574
H       12.22846224      10.54121442      11.60889312      -0.00054014       0.00261154      -0.00624879
H       11.52179094      10.53799966      14.01591313       0.00650250      -0.00756348      -0.00488886
H       10.15811216      11.61658291      13.61271745       0.00616659      -0.00401620       0.00495611
H       10.24588285      10.00112645      12.88307418       0.00157780      -0.00114915      -0.00258300
H       14.61225496      13.02929535      12.43989275      -0.00005536       0.00135255      -0.00424624
H       15.59478507      10.83217615      12.76195977      -0.00149337      -0.00275638      -0.00371182
H       14.32296610      11.08017574      13.99466121       0.00785092       0.01099626       0.00353852
H       14.04880511       9.99606716      12.60129708      -0.00679003       0.00290204       0.01305039
H       13.80367402      11.07199586      10.18972706       0.00334664      -0.00878401       0.00358934
H       13.92462915      12.84588514      10.02748561      -0.00390616      -0.00880786      -0.00402521
H       15.36214824      11.86536137      10.43781815       0.00013027      -0.00144191      -0.00077605
H       13.10539691      14.46718654      13.97468595       0.00154451      -0.00010759      -0.00086641
H       10.74644175      13.98210831      13.51567456       0.00109958      -0.00142334       0.00258078
H       12.17388589      14.95319558      11.76418984      -0.00236694       0.00103503       0.00104385
25
Lattice="25.605137788558736 0.0 0.0 0.0 24.94760060518851 0.0 0.0 0.0 24.018216286516797" Properties=species:S:1:pos:R:3:forces:R:3 mode=1 frequency_thz=-1.1287008677013535 interpolation_step=1 pbc="T T T"
C       10.69278823      11.83165267      10.86592057      -0.00374524       0.00353084       0.00192029
C       11.63529045      11.38220417      11.99451845      -0.00019809       0.00097371      -0.00194529
C       10.84860830      10.86176635      13.20908424       0.00379336      -0.00321043      -0.00104689
N       12.59670456      12.43586730      12.36887285      -0.00001887       0.00077186      -0.00177625
C       14.03679500      12.14952666      12.10289755      -0.00001971       0.00015022      -0.00113452
C       14.51198974      10.94178632      12.92006684      -0.00001789       0.00302582       0.00312229
C       14.28028916      11.97482151      10.59849037      -0.00019231      -0.00503384      -0.00055802
Si      12.11909939      14.02204887      12.94148316       0.00019216       0.00003969       0.00038904
H       10.10778542      10.96003694      10.53843110      -0.00270224       0.00364158      -0.00027130
H       11.25171191      12.22438259      10.00425317      -0.00625939       0.00809929       0.00220668
H        9.98407359      12.60233835      11.20338099      -0.00461528       0.00083025       0.00661574
H       12.22840823      10.54147557      11.60826824      -0.00054014       0.00261154      -0.00624879
H       11.52244119      10.53724331      14.01542424       0.00650250      -0.00756348      -0.00488886
H       10.15872882      11.61618129      13.61321306       0.00616659      -0.00401620       0.00495611
H       10.24604063      10.00101153      12.88281588       0.00157780      -0.00114915      -0.00258300
H       14.61224942      13.02943060      12.43946813      -0.00005536       0.00135255      -0.00424624
H       15.59463573      10.83190052      12.76158859      -0.00149337      -0.00275638      -0.00371182
H       14.32375119      11.08127536      13.99501506       0.00785092       0.01099626       0.00353852
H       14.04812611       9.99635736      12.60260211      -0.00679003       0.00290204       0.01305039
H       13.80400868      11.07111746      10.19008600       0.00334664      -0.00878401       0.00358934
H       13.92423854      12.84500436      10.02708309      -0.00390616      -0.00880786      -0.00402521
H       15.36216126      11.86521718      10.43774054       0.00013027      -0.00144191      -0.00077605
H       13.10555136      14.46717578      13.97459931       0.00154451      -0.00010759      -0.00086641
H       10.74655171      13.98196598      13.51593264       0.00109958      -0.00142334       0.00258078
H       12.17364920      14.95329908      11.76429423      -0.00236694       0.00103503       0.00104385
25
Lattice="25.605137788558736 0.0 0.0 0.0 24.94760060518851 0.0 0.0 0.0 24.018216286516797" Properties=species:S:1:pos:R:3:forces:R:3 mode=1 frequency_thz=-1.1287008677013535 interpolation_step=2 pbc="T T T"
C       10.69241371      11.83200576      10.86611260      -0.00374524       0.00353084       0.00192029
C       11.63527064      11.38230154      11.99432392      -0.00019809       0.00097371      -0.00194529
C       10.84898764      10.86144530      13.20897955       0.00379336      -0.00321043      -0.00104689
N       12.59670267      12.43594449      12.36869522      -0.00001887       0.00077186      -0.00177625
C       14.03679303      12.14954168      12.10278410      -0.00001971       0.00015022      -0.00113452
C       14.51198795      10.94208890      12.92037907      -0.00001789       0.00302582       0.00312229
C       14.28026993      11.97431812      10.59843457      -0.00019231      -0.00503384      -0.00055802
Si      12.11911861      14.02205284      12.94152207       0.00019216       0.00003969       0.00038904
H       10.10751520      10.96040110      10.53840397      -0.00270224       0.00364158      -0.00027130
H       11.25108597      12.22519252      10.00447384      -0.00625939       0.00809929       0.00220668
H        9.98361206      12.60242137      11.20404256      -0.00461528       0.00083025       0.00661574
H       12.22835422      10.54173673      11.60764336      -0.00054014       0.00261154      -0.00624879
H       11.52309144      10.53648697      14.01493536       0.00650250      -0.00756348      -0.00488886
H       10.15934548      11.61577967      13.61370867       0.00616659      -0.00401620       0.00495611
H       10.24619841      10.00089661      12.88255758       0.00157780      -0.00114915      -0.00258300
H       14.61224389      13.02956586      12.43904351      -0.00005536       0.00135255      -0.00424624
H       15.59448639      10.83162488      12.76121740      -0.00149337      -0.00275638      -0.00371182
H       14.32453628      11.08237499      13.99536891       0.00785092       0.01099626       0.00353852
H       14.04744710       9.99664757      12.60390715      -0.00679003       0.00290204       0.01305039
H       13.80434334      11.07023905      10.19044493       0.00334664      -0.00878401       0.00358934
H       13.92384792      12.84412357      10.02668057      -0.00390616      -0.00880786      -0.00402521
H       15.36217429      11.86507299      10.43766294       0.00013027      -0.00144191      -0.00077605
H       13.10570581      14.46716502      13.97451267       0.00154451      -0.00010759      -0.00086641
H       10.74666166      13.98182364      13.51619071       0.00109958      -0.00142334       0.00258078
H       12.17341250      14.95340259      11.76439861      -0.00236694       0.00103503       0.00104385
25
Lattice="25.605137788558736 0.0 0.0 0.0 24.94760060518851 0.0 0.0 0.0 24.018216286516797" Properties=species:S:1:pos:R:3:forces:R:3 mode=1 frequency_thz=-1.1287008677013535 interpolation_step=3 pbc="T T T"
C       10.69203918      11.83235884      10.86630463      -0.00374524       0.00353084       0.00192029
C       11.63525083      11.38239891      11.99412939      -0.00019809       0.00097371      -0.00194529
C       10.84936697      10.86112426      13.20887486       0.00379336      -0.00321043      -0.00104689
N       12.59670079      12.43602167      12.36851760      -0.00001887       0.00077186      -0.00177625
C       14.03679106      12.14955670      12.10267065      -0.00001971       0.00015022      -0.00113452
C       14.51198616      10.94239148      12.92069130      -0.00001789       0.00302582       0.00312229
C       14.28025070      11.97381474      10.59837877      -0.00019231      -0.00503384      -0.00055802
Si      12.11913783      14.02205681      12.94156097       0.00019216       0.00003969       0.00038904
H       10.10724497      10.96076526      10.53837684      -0.00270224       0.00364158      -0.00027130
H       11.25046003      12.22600245      10.00469451      -0.00625939       0.00809929       0.00220668
H        9.98315053      12.60250440      11.20470414      -0.00461528       0.00083025       0.00661574
H       12.22830020      10.54199788      11.60701848      -0.00054014       0.00261154      -0.00624879
H       11.52374169      10.53573062      14.01444647       0.00650250      -0.00756348      -0.00488886
H       10.15996214      11.61537805      13.61420428       0.00616659      -0.00401620       0.00495611
H       10.24635619      10.00078170      12.88229928       0.00157780      -0.00114915      -0.00258300
H       14.61223835      13.02970112      12.43861888      -0.00005536       0.00135255      -0.00424624
H       15.59433706      10.83134924      12.76084622      -0.00149337      -0.00275638      -0.00371182
H       14.32532137      11.08347462      13.99572277       0.00785092       0.01099626       0.00353852
H       14.04676810       9.99693777      12.60521219      -0.00679003       0.00290204       0.01305039
H       13.80467801      11.06936065      10.19080387       0.00334664      -0.00878401       0.00358934
H       13.92345730      12.84324279      10.02627805      -0.00390616      -0.00880786      -0.00402521
H       15.36218732      11.86492880      10.43758533       0.00013027      -0.00144191      -0.00077605
H       13.10586026      14.46715426      13.97442603       0.00154451      -0.00010759      -0.00086641
H       10.74677162      13.98168131      13.51644879       0.00109958      -0.00142334       0.00258078
H       12.17317581      14.95350609      11.76450300      -0.00236694       0.00103503       0.00104385
25
Lattice="25.605137788558736 0.0 0.0 0.0 24.94760060518851 0.0 0.0 0.0 24.018216286516797" Properties=species:S:1:pos:R:3:forces:R:3 mode=1 frequency_thz=-1.1287008677013535 interpolation_step=4 pbc="T T T"
C       10.69166466      11.83271192      10.86649666      -0.00374524       0.00353084       0.00192029
C       11.63523102      11.38249628      11.99393486      -0.00019809       0.00097371      -0.00194529
C       10.84974631      10.86080322      13.20877017       0.00379336      -0.00321043      -0.00104689
N       12.59669890      12.43609886      12.36833997      -0.00001887       0.00077186      -0.00177625
C       14.03678908      12.14957172      12.10255720      -0.00001971       0.00015022      -0.00113452
C       14.51198437      10.94269407      12.92100353      -0.00001789       0.00302582       0.00312229
C       14.28023146      11.97331135      10.59832297      -0.00019231      -0.00503384      -0.00055802
Si      12.11915704      14.02206077      12.94159988       0.00019216       0.00003969       0.00038904
H       10.10697475      10.96112942      10.53834971      -0.00270224       0.00364158      -0.00027130
H       11.24983409      12.22681238      10.00491518      -0.00625939       0.00809929       0.00220668
H        9.98268900      12.60258742      11.20536571      -0.00461528       0.00083025       0.00661574
H       12.22824619      10.54225904      11.60639361      -0.00054014       0.00261154      -0.00624879
H       11.52439194      10.53497427      14.01395758       0.00650250      -0.00756348      -0.00488886
H       10.16057879      11.61497643      13.61469989       0.00616659      -0.00401620       0.00495611
H       10.24651397      10.00066678      12.88204098       0.00157780      -0.00114915      -0.00258300
H       14.61223282      13.02983637      12.43819426      -0.00005536       0.00135255      -0.00424624
H       15.59418772      10.83107360      12.76047504      -0.00149337      -0.00275638      -0.00371182
H       14.32610647      11.08457424      13.99607662       0.00785092       0.01099626       0.00353852
H       14.04608910       9.99722797      12.60651723      -0.00679003       0.00290204       0.01305039
H       13.80501267      11.06848225      10.19116280       0.00334664      -0.00878401       0.00358934
H       13.92306669      12.84236200      10.02587552      -0.00390616      -0.00880786      -0.00402521
H       15.36220034      11.86478461      10.43750773       0.00013027      -0.00144191      -0.00077605
H       13.10601471      14.46714350      13.97433939       0.00154451      -0.00010759      -0.00086641
H       10.74688158      13.98153898      13.51670687       0.00109958      -0.00142334       0.00258078
H       12.17293911      14.95360959      11.76460738      -0.00236694       0.00103503       0.00104385
25
Lattice="25.605137788558736 0.0 0.0 0.0 24.94760060518851 0.0 0.0 0.0 24.018216286516797" Properties=species:S:1:pos:R:3:forces:R:3 mode=1 frequency_thz=-1.1287008677013535 interpolation_step=5 pbc="T T T"
C       10.69129013      11.83306501      10.86668869      -0.00374524       0.00353084       0.00192029
C       11.63521121      11.38259365      11.99374034      -0.00019809       0.00097371      -0.00194529
C       10.85012565      10.86048217      13.20866548       0.00379336      -0.00321043      -0.00104689
N       12.59669701      12.43617604      12.36816235      -0.00001887       0.00077186      -0.00177625
C       14.03678711      12.14958674      12.10244375      -0.00001971       0.00015022      -0.00113452
C       14.51198259      10.94299665      12.92131576      -0.00001789       0.00302582       0.00312229
C       14.28021223      11.97280797      10.59826716      -0.00019231      -0.00503384      -0.00055802
Si      12.11917626      14.02206474      12.94163878       0.00019216       0.00003969       0.00038904
H       10.10670453      10.96149358      10.53832258      -0.00270224       0.00364158      -0.00027130
H       11.24920815      12.22762230      10.00513585      -0.00625939       0.00809929       0.00220668
H        9.98222747      12.60267045      11.20602728      -0.00461528       0.00083025       0.00661574
H       12.22819217      10.54252019      11.60576873      -0.00054014       0.00261154      -0.00624879
H       11.52504219      10.53421792      14.01346870       0.00650250      -0.00756348      -0.00488886
H       10.16119545      11.61457481      13.61519550       0.00616659      -0.00401620       0.00495611
H       10.24667175      10.00055187      12.88178268       0.00157780      -0.00114915      -0.00258300
H       14.61222728      13.02997163      12.43776963      -0.00005536       0.00135255      -0.00424624
H       15.59403838      10.83079797      12.76010386      -0.00149337      -0.00275638      -0.00371182
H       14.32689156      11.08567387      13.99643047       0.00785092       0.01099626       0.00353852
H       14.04541009       9.99751818      12.60782227      -0.00679003       0.00290204       0.01305039
H       13.80534733      11.06760385      10.19152174       0.00334664      -0.00878401       0.00358934
H       13.92267607      12.84148121      10.02547300      -0.00390616      -0.00880786      -0.00402521
H       15.36221337      11.86464042      10.43743012       0.00013027      -0.00144191      -0.00077605
H       13.10616916      14.46713274      13.97425275       0.00154451      -0.00010759      -0.00086641
H       10.74699154      13.98139664      13.51696495       0.00109958      -0.00142334       0.00258078
H       12.17270242      14.95371310      11.76471177      -0.00236694       0.00103503       0.00104385
25
Lattice="25.605137788558736 0.0 0.0 0.0 24.94760060518851 0.0 0.0 0.0 24.018216286516797" Properties=species:S:1:pos:R:3:forces:R:3 mode=1 frequency_thz=-1.1287008677013535 interpolation_step=6 pbc="T T T"
C       10.69091561      11.83341809      10.86688072      -0.00374524       0.00353084       0.00192029
C       11.63519140      11.38269102      11.99354581      -0.00019809       0.00097371      -0.00194529
C       10.85050498      10.86016113      13.20856079       0.00379336      -0.00321043      -0.00104689
N       12.59669513      12.43625323      12.36798472      -0.00001887       0.00077186      -0.00177625
C       14.03678514      12.14960177      12.10233029      -0.00001971       0.00015022      -0.00113452
C       14.51198080      10.94329923      12.92162799      -0.00001789       0.00302582       0.00312229
C       14.28019300      11.97230459      10.59821136      -0.00019231      -0.00503384      -0.00055802
Si      12.11919547      14.02206871      12.94167768       0.00019216       0.00003969       0.00038904
H       10.10643430      10.96185773      10.53829545      -0.00270224       0.00364158      -0.00027130
H       11.24858221      12.22843223      10.00535651      -0.00625939       0.00809929       0.00220668
H        9.98176595      12.60275347      11.20668886      -0.00461528       0.00083025       0.00661574
H       12.22813816      10.54278134      11.60514385      -0.00054014       0.00261154      -0.00624879
H       11.52569244      10.53346157      14.01297981       0.00650250      -0.00756348      -0.00488886
H       10.16181211      11.61417319      13.61569111       0.00616659      -0.00401620       0.00495611
H       10.24682953      10.00043695      12.88152438       0.00157780      -0.00114915      -0.00258300
H       14.61222174      13.03010688      12.43734501      -0.00005536       0.00135255      -0.00424624
H       15.59388904      10.83052233      12.75973268      -0.00149337      -0.00275638      -0.00371182
H       14.32767665      11.08677349      13.99678432       0.00785092       0.01099626       0.00353852
H       14.04473109       9.99780838      12.60912731      -0.00679003       0.00290204       0.01305039
H       13.80568200      11.06672545      10.19188067       0.00334664      -0.00878401       0.00358934
H       13.92228546      12.84060043      10.02507048      -0.00390616      -0.00880786      -0.00402521
H       15.36222640      11.86449622      10.43735252       0.00013027      -0.00144191      -0.00077605
H       13.10632362      14.46712198      13.97416611       0.00154451      -0.00010759      -0.00086641
H       10.74710150      13.98125431      13.51722303       0.00109958      -0.00142334       0.00258078
H       12.17246573      14.95381660      11.76481615      -0.00236694       0.00103503       0.00104385
25
Lattice="25.605137788558736 0.0 0.0 0.0 24.94760060518851 0.0 0.0 0.0 24.018216286516797" Properties=species:S:1:pos:R:3:forces:R:3 mode=1 frequency_thz=-1.1287008677013535 interpolation_step=7 pbc="T T T"
C       10.69054109      11.83377118      10.86707275      -0.00374524       0.00353084       0.00192029
C       11.63517159      11.38278840      11.99335128      -0.00019809       0.00097371      -0.00194529
C       10.85088432      10.85984009      13.20845610       0.00379336      -0.00321043      -0.00104689
N       12.59669324      12.43633042      12.36780710      -0.00001887       0.00077186      -0.00177625
C       14.03678317      12.14961679      12.10221684      -0.00001971       0.00015022      -0.00113452
C       14.51197901      10.94360181      12.92194022      -0.00001789       0.00302582       0.00312229
C       14.28017377      11.97180120      10.59815556      -0.00019231      -0.00503384      -0.00055802
Si      12.11921469      14.02207268      12.94171659       0.00019216       0.00003969       0.00038904
H       10.10616408      10.96222189      10.53826832      -0.00270224       0.00364158      -0.00027130
H       11.24795627      12.22924216      10.00557718      -0.00625939       0.00809929       0.00220668
H        9.98130442      12.60283650      11.20735043      -0.00461528       0.00083025       0.00661574
H       12.22808414      10.54304250      11.60451897      -0.00054014       0.00261154      -0.00624879
H       11.52634269      10.53270523      14.01249093       0.00650250      -0.00756348      -0.00488886
H       10.16242877      11.61377157      13.61618673       0.00616659      -0.00401620       0.00495611
H       10.24698731      10.00032204      12.88126608       0.00157780      -0.00114915      -0.00258300
H       14.61221621      13.03024214      12.43692039      -0.00005536       0.00135255      -0.00424624
H       15.59373971      10.83024669      12.75936150      -0.00149337      -0.00275638      -0.00371182
H       14.32846174      11.08787312      13.99713818       0.00785092       0.01099626       0.00353852
H       14.04405208       9.99809859      12.61043235      -0.00679003       0.00290204       0.01305039
H       13.80601666      11.06584705      10.19223960       0.00334664      -0.00878401       0.00358934
H       13.92189484      12.83971964      10.02466796      -0.00390616      -0.00880786      -0.00402521
H       15.36223942      11.86435203      10.43727491       0.00013027      -0.00144191      -0.00077605
H       13.10647807      14.46711122      13.97407947       0.00154451      -0.00010759      -0.00086641
H       10.74721146      13.98111197      13.51748110       0.00109958      -0.00142334       0.00258078
H       12.17222903      14.95392010      11.76492054      -0.00236694       0.00103503       0.00104385
25
Lattice="25.605137788558736 0.0 0.0 0.0 24.94760060518851 0.0 0.0 0.0 24.018216286516797" Properties=species:S:1:pos:R:3:forces:R:3 mode=1 frequency_thz=-1.1287008677013535 interpolation_step=8 pbc="T T T"
C       10.69016656      11.83412426      10.86726478      -0.00374524       0.00353084       0.00192029
C       11.63515178      11.38288577      11.99315675      -0.00019809       0.00097371      -0.00194529
C       10.85126366      10.85951904      13.20835142       0.00379336      -0.00321043      -0.00104689
N       12.59669135      12.43640760      12.36762948      -0.00001887       0.00077186      -0.00177625
C       14.03678120      12.14963181      12.10210339      -0.00001971       0.00015022      -0.00113452
C       14.51197722      10.94390439      12.92225245      -0.00001789       0.00302582       0.00312229
C       14.28015454      11.97129782      10.59809976      -0.00019231      -0.00503384      -0.00055802
Si      12.11923391      14.02207665      12.94175549       0.00019216       0.00003969       0.00038904
H       10.10589386      10.96258605      10.53824119      -0.00270224       0.00364158      -0.00027130
H       11.24733034      12.23005209      10.00579785      -0.00625939       0.00809929       0.00220668
H        9.98084289      12.60291952      11.20801201      -0.00461528       0.00083025       0.00661574
H       12.22803013      10.54330365      11.60389409      -0.00054014       0.00261154      -0.00624879
H       11.52699294      10.53194888      14.01200204       0.00650250      -0.00756348      -0.00488886
H       10.16304543      11.61336995      13.61668234       0.00616659      -0.00401620       0.00495611
H       10.24714509      10.00020712      12.88100778       0.00157780      -0.00114915      -0.00258300
H       14.61221067      13.03037739      12.43649576      -0.00005536       0.00135255      -0.00424624
H       15.59359037      10.82997105      12.75899031      -0.00149337      -0.00275638      -0.00371182
H       14.32924683      11.08897275      13.99749203       0.00785092       0.01099626       0.00353852
H       14.04337308       9.99838879      12.61173739      -0.00679003       0.00290204       0.01305039
H       13.80635133      11.06496865      10.19259854       0.00334664      -0.00878401       0.00358934
H       13.92150422      12.83883886      10.02426544      -0.00390616      -0.00880786      -0.00402521
H       15.36225245      11.86420784      10.43719731       0.00013027      -0.00144191      -0.00077605
H       13.10663252      14.46710046      13.97399283       0.00154451      -0.00010759      -0.00086641
H       10.74732141      13.98096964      13.51773918       0.00109958      -0.00142334       0.00258078
H       12.17199234      14.95402360      11.76502492      -0.00236694       0.00103503       0.00104385
25
Lattice="25.605137788558736 0.0 0.0 0.0 24.94760060518851 0.0 0.0 0.0 24.018216286516797" Properties=species:S:1:pos:R:3:forces:R:3 mode=1 frequency_thz=-1.1287008677013535 interpolation_step=9 pbc="T T T"
C       10.68979204      11.83447735      10.86745681      -0.00374524       0.00353084       0.00192029
C       11.63513197      11.38298314      11.99296222      -0.00019809       0.00097371      -0.00194529
C       10.85164299      10.85919800      13.20824673       0.00379336      -0.00321043      -0.00104689
N       12.59668947      12.43648479      12.36745185      -0.00001887       0.00077186      -0.00177625
C       14.03677923      12.14964683      12.10198994      -0.00001971       0.00015022      -0.00113452
C       14.51197543      10.94420698      12.92256468      -0.00001789       0.00302582       0.00312229
C       14.28013531      11.97079443      10.59804395      -0.00019231      -0.00503384      -0.00055802
Si      12.11925312      14.02208062      12.94179440       0.00019216       0.00003969       0.00038904
H       10.10562363      10.96295021      10.53821406      -0.00270224       0.00364158      -0.00027130
H       11.24670440      12.23086202      10.00601852      -0.00625939       0.00809929       0.00220668
H        9.98038136      12.60300255      11.20867358      -0.00461528       0.00083025       0.00661574
H       12.22797612      10.54356481      11.60326921      -0.00054014       0.00261154      -0.00624879
H       11.52764319      10.53119253      14.01151315       0.00650250      -0.00756348      -0.00488886
H       10.16366209      11.61296833      13.61717795       0.00616659      -0.00401620       0.00495611
H       10.24730287      10.00009221      12.88074948       0.00157780      -0.00114915      -0.00258300
H       14.61220513      13.03051265      12.43607114      -0.00005536       0.00135255      -0.00424624
H       15.59344103      10.82969542      12.75861913      -0.00149337      -0.00275638      -0.00371182
H       14.33003193      11.09007237      13.99784588       0.00785092       0.01099626       0.00353852
H       14.04269408       9.99867900      12.61304243      -0.00679003       0.00290204       0.01305039
H       13.80668599      11.06409025      10.19295747       0.00334664      -0.00878401       0.00358934
H       13.92111361      12.83795807      10.02386292      -0.00390616      -0.00880786      -0.00402521
H       15.36226548      11.86406365      10.43711971       0.00013027      -0.00144191      -0.00077605
H       13.10678697      14.46708970      13.97390619       0.00154451      -0.00010759      -0.00086641
H       10.74743137      13.98082730      13.51799726       0.00109958      -0.00142334       0.00258078
H       12.17175564      14.95412711      11.76512931      -0.00236694       0.00103503       0.00104385
25
Lattice="25.605137788558736 0.0 0.0 0.0 24.94760060518851 0.0 0.0 0.0 24.018216286516797" Properties=species:S:1:pos:R:3:forces:R:3 mode=1 frequency_thz=-1.1287008677013535 interpolation_step=10 pbc="T T T"
C       10.68941751      11.83483043      10.86764884      -0.00374524       0.00353084       0.00192029
C       11.63511216      11.38308051      11.99276769      -0.00019809       0.00097371      -0.00194529
C       10.85202233      10.85887696      13.20814204       0.00379336      -0.00321043      -0.00104689
N       12.59668758      12.43656197      12.36727423      -0.00001887       0.00077186      -0.00177625
C       14.03677726      12.14966185      12.10187648      -0.00001971       0.00015022      -0.00113452
C       14.51197364      10.94450956      12.92287691      -0.00001789       0.00302582       0.00312229
C       14.28011608      11.97029105      10.59798815      -0.00019231      -0.00503384      -0.00055802
Si      12.11927234      14.02208459      12.94183330       0.00019216       0.00003969       0.00038904
H       10.10535341      10.96331437      10.53818693      -0.00270224       0.00364158      -0.00027130
H       11.24607846      12.23167195      10.00623919      -0.00625939       0.00809929       0.00220668
H        9.97991983      12.60308557      11.20933516      -0.00461528       0.00083025       0.00661574
H       12.22792210      10.54382596      11.60264433      -0.00054014       0.00261154      -0.00624879
H       11.52829344      10.53043618      14.01102427       0.00650250      -0.00756348      -0.00488886