25
Lattice="25.605137788558736 0.0 0.0 0.0 24.94760060518851 0.0 0.0 0.0 24.018216286516797" Properties=species:S:1:pos:R:3:forces:R:3 mode=2 frequency_thz=-0.7990650509538032 interpolation_step=0 pbc="T T T"
C       10.68941751      11.83483043      10.86764884      -0.00308554       0.00336566       0.00260098
C       11.63511216      11.38308051      11.99276769      -0.00000890       0.00041231      -0.00106381
C       10.85202233      10.85887696      13.20814204       0.00351616      -0.00405314      -0.00055819
N       12.59668758      12.43656197      12.36727423       0.00004253      -0.00001886      -0.00002359
C       14.03677726      12.14966185      12.10187648       0.00018231      -0.00065895       0.00154931
C       14.51197364      10.94450956      12.92287691      -0.00239983      -0.00436420      -0.00246538
C       14.28011608      11.97029105      10.59798815       0.00217770       0.00500817       0.00116030
Si      12.11927234      14.02208459      12.94183330      -0.00018267       0.00008517      -0.00050137
H       10.10535341      10.96331437      10.53818693      -0.00171470       0.00352954      -0.00033207
H       11.24607846      12.23167195      10.00623919      -0.00525635       0.00853186       0.00336797
H        9.97991983      12.60308557      11.20933516      -0.00431430       0.00031236       0.00736145
H       12.22792210      10.54382596      11.60264433      -0.00030128       0.00210550      -0.00541681
H       11.52829344      10.53043618      14.01102427       0.00590641      -0.00825156      -0.00408105
H       10.16427875      11.61256671      13.61767356       0.00554658      -0.00499727       0.00510822
H       10.24746065       9.99997729      12.88049118       0.00168665      -0.00213643      -0.00240921
H       14.61219960      13.03064790      12.43564651       0.00062739      -0.00259634       0.00587522
H       15.59329170      10.82941978      12.75824795      -0.00163037      -0.00257206       0.00199858
H       14.33081702      11.09117200      13.99819973      -0.00738025      -0.01024345      -0.00262092
H       14.04201507       9.99896920      12.61434747       0.00009446      -0.00306477      -0.00979390
H       13.80702065      11.06321184      10.19331641      -0.00012095       0.00838457      -0.00362546
H       13.92072299      12.83707729      10.02346040       0.00575054       0.00859052       0.00441103
H       15.36227850      11.86391946      10.43704210       0.00211672       0.00231786       0.00247095
H       13.10694142      14.46707895      13.97381955       0.00005494       0.00102706      -0.00117683
H       10.74754133      13.98068497      13.51825534       0.00012201      -0.00074458       0.00031371
H       12.17151895      14.95423061      11.76523369      -0.00141247      -0.00035970      -0.00093625
25
Lattice="25.605137788558736 0.0 0.0 0.0 24.94760060518851 0.0 0.0 0.0 24.018216286516797" Properties=species:S:1:pos:R:3:forces:R:3 mode=2 frequency_thz=-0.7990650509538032 interpolation_step=1 pbc="T T T"
C       10.68910896      11.83516699      10.86790894      -0.00308554       0.00336566       0.00260098
C       11.63511127      11.38312174      11.99266131      -0.00000890       0.00041231      -0.00106381
C       10.85237395      10.85847164      13.20808622       0.00351616      -0.00405314      -0.00055819
N       12.59669183      12.43656009      12.36727187       0.00004253      -0.00001886      -0.00002359
C       14.03679549      12.14959596      12.10203142       0.00018231      -0.00065895       0.00154931
C       14.51173366      10.94407314      12.92263037      -0.00239983      -0.00436420      -0.00246538
C       14.28033385      11.97079187      10.59810418       0.00217770       0.00500817       0.00116030
Si      12.11925407      14.02209310      12.94178316      -0.00018267       0.00008517      -0.00050137
H       10.10518194      10.96366732      10.53815372      -0.00171470       0.00352954      -0.00033207
H       11.24555282      12.23252513      10.00657598      -0.00525635       0.00853186       0.00336797
H        9.97948840      12.60311681      11.21007130      -0.00431430       0.00031236       0.00736145
H       12.22789197      10.54403651      11.60210265      -0.00030128       0.00210550      -0.00541681
H       11.52888408      10.52961103      14.01061616       0.00590641      -0.00825156      -0.00408105
H       10.16483341      11.61206699      13.61818438       0.00554658      -0.00499727       0.00510822
H       10.24762931       9.99976365      12.88025026       0.00168665      -0.00213643      -0.00240921
H       14.61226234      13.03038827      12.43623404       0.00062739      -0.00259634       0.00587522
H       15.59312866      10.82916257      12.75844781      -0.00163037      -0.00257206       0.00199858
H       14.33007899      11.09014765      13.99793764      -0.00738025      -0.01024345      -0.00262092
H       14.04202452       9.99866272      12.61336808       0.00009446      -0.00306477      -0.00979390
H       13.80700856      11.06405030      10.19295386      -0.00012095       0.00838457      -0.00362546
H       13.92129804      12.83793634      10.02390150       0.00575054       0.00859052       0.00441103
H       15.36249017      11.86415125      10.43728920       0.00211672       0.00231786       0.00247095
H       13.10694691      14.46718165      13.97370187       0.00005494       0.00102706      -0.00117683
H       10.74755353      13.98061051      13.51828671       0.00012201      -0.00074458       0.00031371
H       12.17137770      14.95419464      11.76514007      -0.00141247      -0.00035970      -0.00093625
25
Lattice="25.605137788558736 0.0 0.0 0.0 24.94760060518851 0.0 0.0 0.0 24.018216286516797" Properties=species:S:1:pos:R:3:forces:R:3 mode=2 frequency_thz=-0.7990650509538032 interpolation_step=2 pbc="T T T"
C       10.68880041      11.83550356      10.86816903      -0.00308554       0.00336566       0.00260098
C       11.63511038      11.38316297      11.99255493      -0.00000890       0.00041231      -0.00106381
C       10.85272556      10.85806633      13.20803040       0.00351616      -0.00405314      -0.00055819
N       12.59669609      12.43655820      12.36726951       0.00004253      -0.00001886      -0.00002359
C       14.03681372      12.14953006      12.10218635       0.00018231      -0.00065895       0.00154931
C       14.51149368      10.94363672      12.92238383      -0.00239983      -0.00436420      -0.00246538
C       14.28055162      11.97129268      10.59822021       0.00217770       0.00500817       0.00116030
Si      12.11923581      14.02210162      12.94173302      -0.00018267       0.00008517      -0.00050137
H       10.10501047      10.96402027      10.53812051      -0.00171470       0.00352954      -0.00033207
H       11.24502719      12.23337832      10.00691278      -0.00525635       0.00853186       0.00336797
H        9.97905697      12.60314804      11.21080745      -0.00431430       0.00031236       0.00736145
H       12.22786185      10.54424706      11.60156097      -0.00030128       0.00210550      -0.00541681
H       11.52947472      10.52878587      14.01020806       0.00590641      -0.00825156      -0.00408105
H       10.16538806      11.61156726      13.61869520       0.00554658      -0.00499727       0.00510822
H       10.24779798       9.99955000      12.88000934       0.00168665      -0.00213643      -0.00240921
H       14.61232508      13.03012864      12.43682156       0.00062739      -0.00259634       0.00587522
H       15.59296562      10.82890537      12.75864767      -0.00163037      -0.00257206       0.00199858
H       14.32934097      11.08912331      13.99767555      -0.00738025      -0.01024345      -0.00262092
H       14.04203397       9.99835624      12.61238869       0.00009446      -0.00306477      -0.00979390
H       13.80699646      11.06488876      10.19259131      -0.00012095       0.00838457      -0.00362546
H       13.92187310      12.83879539      10.02434260       0.00575054       0.00859052       0.00441103
H       15.36270185      11.86438303      10.43753629       0.00211672       0.00231786       0.00247095
H       13.10695241      14.46728436      13.97358418       0.00005494       0.00102706      -0.00117683
H       10.74756573      13.98053605      13.51831808       0.00012201      -0.00074458       0.00031371
H       12.17123646      14.95415867      11.76504644      -0.00141247      -0.00035970      -0.00093625
25
Lattice="25.605137788558736 0.0 0.0 0.0 24.94760060518851 0.0 0.0 0.0 24.018216286516797" Properties=species:S:1:pos:R:3:forces:R:3 mode=2 frequency_thz=-0.7990650509538032 interpolation_step=3 pbc="T T T"
C       10.68849185      11.83584013      10.86842913      -0.00308554       0.00336566       0.00260098
C       11.63510949      11.38320420      11.99244855      -0.00000890       0.00041231      -0.00106381
C       10.85307718      10.85766101      13.20797458       0.00351616      -0.00405314      -0.00055819
N       12.59670034      12.43655631      12.36726715       0.00004253      -0.00001886      -0.00002359
C       14.03683195      12.14946417      12.10234128       0.00018231      -0.00065895       0.00154931
C       14.51125369      10.94320030      12.92213729      -0.00239983      -0.00436420      -0.00246538
C       14.28076939      11.97179350      10.59833624       0.00217770       0.00500817       0.00116030
Si      12.11921754      14.02211014      12.94168289      -0.00018267       0.00008517      -0.00050137
H       10.10483900      10.96437323      10.53808730      -0.00171470       0.00352954      -0.00033207
H       11.24450155      12.23423151      10.00724958      -0.00525635       0.00853186       0.00336797
H        9.97862554      12.60317928      11.21154359      -0.00431430       0.00031236       0.00736145
H       12.22783172      10.54445761      11.60101929      -0.00030128       0.00210550      -0.00541681
H       11.53006536      10.52796071      14.00979995       0.00590641      -0.00825156      -0.00408105
H       10.16594272      11.61106753      13.61920602       0.00554658      -0.00499727       0.00510822
H       10.24796664       9.99933636      12.87976842       0.00168665      -0.00213643      -0.00240921
H       14.61238782      13.02986900      12.43740908       0.00062739      -0.00259634       0.00587522
H       15.59280259      10.82864816      12.75884753      -0.00163037      -0.00257206       0.00199858
H       14.32860295      11.08809896      13.99741346      -0.00738025      -0.01024345      -0.00262092
H       14.04204341       9.99804977      12.61140930       0.00009446      -0.00306477      -0.00979390
H       13.80698437      11.06572721      10.19222877      -0.00012095       0.00838457      -0.00362546
H       13.92244815      12.83965444      10.02478371       0.00575054       0.00859052       0.00441103
H       15.36291352      11.86461482      10.43778338       0.00211672       0.00231786       0.00247095
H       13.10695790      14.46738706      13.97346650       0.00005494       0.00102706      -0.00117683
H       10.74757793      13.98046160      13.51834945       0.00012201      -0.00074458       0.00031371
H       12.17109521      14.95412270      11.76495282      -0.00141247      -0.00035970      -0.00093625
25
Lattice="25.605137788558736 0.0 0.0 0.0 24.94760060518851 0.0 0.0 0.0 24.018216286516797" Properties=species:S:1:pos:R:3:forces:R:3 mode=2 frequency_thz=-0.7990650509538032 interpolation_step=4 pbc="T T T"
C       10.68818330      11.83617669      10.86868923      -0.00308554       0.00336566       0.00260098
C       11.63510860      11.38324543      11.99234217      -0.00000890       0.00041231      -0.00106381
C       10.85342879      10.85725570      13.20791876       0.00351616      -0.00405314      -0.00055819
N       12.59670459      12.43655443      12.36726479       0.00004253      -0.00001886      -0.00002359
C       14.03685018      12.14939827      12.10249621       0.00018231      -0.00065895       0.00154931
C       14.51101371      10.94276388      12.92189076      -0.00239983      -0.00436420      -0.00246538
C       14.28098716      11.97229432      10.59845227       0.00217770       0.00500817       0.00116030
Si      12.11919927      14.02211866      12.94163275      -0.00018267       0.00008517      -0.00050137
H       10.10466753      10.96472618      10.53805410      -0.00171470       0.00352954      -0.00033207
H       11.24397592      12.23508469      10.00758637      -0.00525635       0.00853186       0.00336797
H        9.97819411      12.60321052      11.21227974      -0.00431430       0.00031236       0.00736145
H       12.22780159      10.54466816      11.60047761      -0.00030128       0.00210550      -0.00541681
H       11.53065600      10.52713556      14.00939185       0.00590641      -0.00825156      -0.00408105
H       10.16649738      11.61056781      13.61971685       0.00554658      -0.00499727       0.00510822
H       10.24813531       9.99912272      12.87952750       0.00168665      -0.00213643      -0.00240921
H       14.61245056      13.02960937      12.43799660       0.00062739      -0.00259634       0.00587522
H       15.59263955      10.82839095      12.75904738      -0.00163037      -0.00257206       0.00199858
H       14.32786492      11.08707462      13.99715137      -0.00738025      -0.01024345      -0.00262092
H       14.04205286       9.99774329      12.61042991       0.00009446      -0.00306477      -0.00979390
H       13.80697227      11.06656567      10.19186622      -0.00012095       0.00838457      -0.00362546
H       13.92302321      12.84051349      10.02522481       0.00575054       0.00859052       0.00441103
H       15.36312519      11.86484660      10.43803048       0.00211672       0.00231786       0.00247095
H       13.10696339      14.46748977      13.97334882       0.00005494       0.00102706      -0.00117683
H       10.74759014      13.98038714      13.51838082       0.00012201      -0.00074458       0.00031371
H       12.17095396      14.95408673      11.76485919      -0.00141247      -0.00035970      -0.00093625
25
Lattice="25.605137788558736 0.0 0.0 0.0 24.94760060518851 0.0 0.0 0.0 24.018216286516797" Properties=species:S:1:pos:R:3:forces:R:3 mode=2 frequency_thz=-0.7990650509538032 interpolation_step=5 pbc="T T T"
C       10.68787474      11.83651326      10.86894933      -0.00308554       0.00336566       0.00260098
C       11.63510771      11.38328666      11.99223579      -0.00000890       0.00041231      -0.00106381
C       10.85378041      10.85685039      13.20786294       0.00351616      -0.00405314      -0.00055819
N       12.59670884      12.43655254      12.36726243       0.00004253      -0.00001886      -0.00002359
C       14.03686841      12.14933238      12.10265114       0.00018231      -0.00065895       0.00154931
C       14.51077373      10.94232746      12.92164422      -0.00239983      -0.00436420      -0.00246538
C       14.28120493      11.97279513      10.59856830       0.00217770       0.00500817       0.00116030
Si      12.11918101      14.02212717      12.94158261      -0.00018267       0.00008517      -0.00050137
H       10.10449606      10.96507914      10.53802089      -0.00171470       0.00352954      -0.00033207
H       11.24345028      12.23593788      10.00792317      -0.00525635       0.00853186       0.00336797
H        9.97776268      12.60324175      11.21301588      -0.00431430       0.00031236       0.00736145
H       12.22777146      10.54487871      11.59993593      -0.00030128       0.00210550      -0.00541681
H       11.53124664      10.52631040      14.00898374       0.00590641      -0.00825156      -0.00408105
H       10.16705204      11.61006808      13.62022767       0.00554658      -0.00499727       0.00510822
H       10.24830397       9.99890908      12.87928657       0.00168665      -0.00213643      -0.00240921
H       14.61251329      13.02934973      12.43858412       0.00062739      -0.00259634       0.00587522
H       15.59247651      10.82813375      12.75924724      -0.00163037      -0.00257206       0.00199858
H       14.32712690      11.08605028      13.99688928      -0.00738025      -0.01024345      -0.00262092
H       14.04206230       9.99743681      12.60945052       0.00009446      -0.00306477      -0.00979390
H       13.80696018      11.06740413      10.19150367      -0.00012095       0.00838457      -0.00362546
H       13.92359826      12.84137255      10.02566591       0.00575054       0.00859052       0.00441103
H       15.36333686      11.86507839      10.43827757       0.00211672       0.00231786       0.00247095
H       13.10696889      14.46759248      13.97323113       0.00005494       0.00102706      -0.00117683
H       10.74760234      13.98031268      13.51841219       0.00012201      -0.00074458       0.00031371
H       12.17081271      14.95405076      11.76476557      -0.00141247      -0.00035970      -0.00093625
25
Lattice="25.605137788558736 0.0 0.0 0.0 24.94760060518851 0.0 0.0 0.0 24.018216286516797" Properties=species:S:1:pos:R:3:forces:R:3 mode=2 frequency_thz=-0.7990650509538032 interpolation_step=6 pbc="T T T"
C       10.68756619      11.83684982      10.86920943      -0.00308554       0.00336566       0.00260098
C       11.63510682      11.38332789      11.99212940      -0.00000890       0.00041231      -0.00106381
C       10.85413203      10.85644507      13.20780712       0.00351616      -0.00405314      -0.00055819
N       12.59671310      12.43655066      12.36726007       0.00004253      -0.00001886      -0.00002359
C       14.03688664      12.14926648      12.10280607       0.00018231      -0.00065895       0.00154931
C       14.51053374      10.94189104      12.92139768      -0.00239983      -0.00436420      -0.00246538
C       14.28142270      11.97329595      10.59868433       0.00217770       0.00500817       0.00116030
Si      12.11916274      14.02213569      12.94153247      -0.00018267       0.00008517      -0.00050137
H       10.10432459      10.96543209      10.53798768      -0.00171470       0.00352954      -0.00033207
H       11.24292464      12.23679106      10.00825997      -0.00525635       0.00853186       0.00336797
H        9.97733125      12.60327299      11.21375203      -0.00431430       0.00031236       0.00736145
H       12.22774134      10.54508926      11.59939425      -0.00030128       0.00210550      -0.00541681
H       11.53183728      10.52548524      14.00857564       0.00590641      -0.00825156      -0.00408105
H       10.16760670      11.60956835      13.62073849       0.00554658      -0.00499727       0.00510822
H       10.24847264       9.99869543      12.87904565       0.00168665      -0.00213643      -0.00240921
H       14.61257603      13.02909010      12.43917165       0.00062739      -0.00259634       0.00587522
H       15.59231348      10.82787654      12.75944710      -0.00163037      -0.00257206       0.00199858
H       14.32638887      11.08502593      13.99662718      -0.00738025      -0.01024345      -0.00262092
H       14.04207175       9.99713034      12.60847113       0.00009446      -0.00306477      -0.00979390
H       13.80694808      11.06824258      10.19114113      -0.00012095       0.00838457      -0.00362546
H       13.92417331      12.84223160      10.02610702       0.00575054       0.00859052       0.00441103
H       15.36354854      11.86531018      10.43852467       0.00211672       0.00231786       0.00247095
H       13.10697438      14.46769518      13.97311345       0.00005494       0.00102706      -0.00117683
H       10.74761454      13.98023822      13.51844356       0.00012201      -0.00074458       0.00031371
H       12.17067147      14.95401479      11.76467194      -0.00141247      -0.00035970      -0.00093625
25
Lattice="25.605137788558736 0.0 0.0 0.0 24.94760060518851 0.0 0.0 0.0 24.018216286516797" Properties=species:S:1:pos:R:3:forces:R:3 mode=2 frequency_thz=-0.7990650509538032 interpolation_step=7 pbc="T T T"
C       10.68725764      11.83718639      10.86946953      -0.00308554       0.00336566       0.00260098
C       11.63510593      11.38336912      11.99202302      -0.00000890       0.00041231      -0.00106381
C       10.85448364      10.85603976      13.20775131       0.00351616      -0.00405314      -0.00055819
N       12.59671735      12.43654877      12.36725771       0.00004253      -0.00001886      -0.00002359
C       14.03690487      12.14920059      12.10296100       0.00018231      -0.00065895       0.00154931
C       14.51029376      10.94145462      12.92115114      -0.00239983      -0.00436420      -0.00246538
C       14.28164047      11.97379677      10.59880036       0.00217770       0.00500817       0.00116030
Si      12.11914447      14.02214421      12.94148234      -0.00018267       0.00008517      -0.00050137
H       10.10415312      10.96578504      10.53795448      -0.00171470       0.00352954      -0.00033207
H       11.24239901      12.23764425      10.00859676      -0.00525635       0.00853186       0.00336797
H        9.97689982      12.60330422      11.21448817      -0.00431430       0.00031236       0.00736145
H       12.22771121      10.54529981      11.59885257      -0.00030128       0.00210550      -0.00541681
H       11.53242792      10.52466009      14.00816754       0.00590641      -0.00825156      -0.00408105
H       10.16816135      11.60906863      13.62124931       0.00554658      -0.00499727       0.00510822
H       10.24864130       9.99848179      12.87880473       0.00168665      -0.00213643      -0.00240921
H       14.61263877      13.02883046      12.43975917       0.00062739      -0.00259634       0.00587522
H       15.59215044      10.82761933      12.75964696      -0.00163037      -0.00257206       0.00199858
H       14.32565085      11.08400159      13.99636509      -0.00738025      -0.01024345      -0.00262092
H       14.04208120       9.99682386      12.60749174       0.00009446      -0.00306477      -0.00979390
H       13.80693599      11.06908104      10.19077858      -0.00012095       0.00838457      -0.00362546
H       13.92474837      12.84309065      10.02654812       0.00575054       0.00859052       0.00441103
H       15.36376021      11.86554196      10.43877176       0.00211672       0.00231786       0.00247095
H       13.10697988      14.46779789      13.97299577       0.00005494       0.00102706      -0.00117683
H       10.74762674      13.98016377      13.51847493       0.00012201      -0.00074458       0.00031371
H       12.17053022      14.95397882      11.76457831      -0.00141247      -0.00035970      -0.00093625
25
Lattice="25.605137788558736 0.0 0.0 0.0 24.94760060518851 0.0 0.0 0.0 24.018216286516797" Properties=species:S:1:pos:R:3:forces:R:3 mode=2 frequency_thz=-0.7990650509538032 interpolation_step=8 pbc="T T T"
C       10.68694908      11.83752295      10.86972962      -0.00308554       0.00336566       0.00260098
C       11.63510504      11.38341036      11.99191664      -0.00000890       0.00041231      -0.00106381
C       10.85483526      10.85563444      13.20769549       0.00351616      -0.00405314      -0.00055819
N       12.59672160      12.43654688      12.36725536       0.00004253      -0.00001886      -0.00002359
C       14.03692310      12.14913469      12.10311593       0.00018231      -0.00065895       0.00154931
C       14.51005378      10.94101820      12.92090460      -0.00239983      -0.00436420      -0.00246538
C       14.28185824      11.97429758      10.59891639       0.00217770       0.00500817       0.00116030
Si      12.11912621      14.02215272      12.94143220      -0.00018267       0.00008517      -0.00050137
H       10.10398165      10.96613800      10.53792127      -0.00171470       0.00352954      -0.00033207
H       11.24187337      12.23849744      10.00893356      -0.00525635       0.00853186       0.00336797
H        9.97646839      12.60333546      11.21522432      -0.00431430       0.00031236       0.00736145
H       12.22768108      10.54551036      11.59831089      -0.00030128       0.00210550      -0.00541681
H       11.53301856      10.52383493      14.00775943       0.00590641      -0.00825156      -0.00408105
H       10.16871601      11.60856890      13.62176013       0.00554658      -0.00499727       0.00510822
H       10.24880997       9.99826815      12.87856381       0.00168665      -0.00213643      -0.00240921
H       14.61270151      13.02857083      12.44034669       0.00062739      -0.00259634       0.00587522
H       15.59198740      10.82736213      12.75984682      -0.00163037      -0.00257206       0.00199858
H       14.32491282      11.08297724      13.99610300      -0.00738025      -0.01024345      -0.00262092
H       14.04209064       9.99651738      12.60651235       0.00009446      -0.00306477      -0.00979390
H       13.80692389      11.06991950      10.19041604      -0.00012095       0.00838457      -0.00362546
H       13.92532342      12.84394970      10.02698922       0.00575054       0.00859052       0.00441103
H       15.36397188      11.86577375      10.43901886       0.00211672       0.00231786       0.00247095
H       13.10698537      14.46790060      13.97287809       0.00005494       0.00102706      -0.00117683
H       10.74763894      13.98008931      13.51850630       0.00012201      -0.00074458       0.00031371
H       12.17038897      14.95394285      11.76448469      -0.00141247      -0.00035970      -0.00093625
25
Lattice="25.605137788558736 0.0 0.0 0.0 24.94760060518851 0.0 0.0 0.0 24.018216286516797" Properties=species:S:1:pos:R:3:forces:R:3 mode=2 frequency_thz=-0.7990650509538032 interpolation_step=9 pbc="T T T"
C       10.68664053      11.83785952      10.86998972      -0.00308554       0.00336566       0.00260098
C       11.63510415      11.38345159      11.99181026      -0.00000890       0.00041231      -0.00106381
C       10.85518688      10.85522913      13.20763967       0.00351616      -0.00405314      -0.00055819
N       12.59672586      12.43654500      12.36725300       0.00004253      -0.00001886      -0.00002359
C       14.03694133      12.14906880      12.10327086       0.00018231      -0.00065895       0.00154931
C       14.50981379      10.94058178      12.92065807      -0.00239983      -0.00436420      -0.00246538
C       14.28207601      11.97479840      10.59903243       0.00217770       0.00500817       0.00116030
Si      12.11910794      14.02216124      12.94138206      -0.00018267       0.00008517      -0.00050137
H       10.10381018      10.96649095      10.53788806      -0.00171470       0.00352954      -0.00033207
H       11.24134774      12.23935062      10.00927036      -0.00525635       0.00853186       0.00336797
H        9.97603696      12.60336670      11.21596046      -0.00431430       0.00031236       0.00736145
H       12.22765095      10.54572091      11.59776921      -0.00030128       0.00210550      -0.00541681
H       11.53360920      10.52300978      14.00735133       0.00590641      -0.00825156      -0.00408105
H       10.16927067      11.60806917      13.62227096       0.00554658      -0.00499727       0.00510822
H       10.24897863       9.99805450      12.87832289       0.00168665      -0.00213643      -0.00240921
H       14.61276425      13.02831119      12.44093421       0.00062739      -0.00259634       0.00587522
H       15.59182437      10.82710492      12.76004667      -0.00163037      -0.00257206       0.00199858
H       14.32417480      11.08195290      13.99584091      -0.00738025      -0.01024345      -0.00262092
H       14.04210009       9.99621090      12.60553296       0.00009446      -0.00306477      -0.00979390
H       13.80691180      11.07075795      10.19005349      -0.00012095       0.00838457      -0.00362546
H       13.92589847      12.84480875      10.02743032       0.00575054       0.00859052       0.00441103
H       15.36418355      11.86600553      10.43926595       0.00211672       0.00231786       0.00247095
H       13.10699087      14.46800330      13.97276040       0.00005494       0.00102706      -0.00117683
H       10.74765114      13.98001485      13.51853768       0.00012201      -0.00074458       0.00031371
H       12.17024773      14.95390688      11.76439106      -0.00141247      -0.00035970      -0.00093625
25
Lattice="25.605137788558736 0.0 0.0 0.0 24.94760060518851 0.0 0.0 0.0 24.018216286516797" Properties=species:S:1:pos:R:3:forces:R:3 mode=2 frequency_thz=-0.7990650509538032 interpolation_step=10 pbc="T T T"
C       10.68633198      11.83819608      10.87024982      -0.00308554       0.00336566       0.00260098
C       11.63510326      11.38349282      11.99170388      -0.00000890       0.00041231      -0.00106381
C       10.85553849      10.85482381      13.20758385       0.00351616      -0.00405314      -0.00055819
N       12.59673011      12.43654311      12.36725064       0.00004253      -0.00001886      -0.00002359
C       14.03695957      12.14900290      12.10342580       0.00018231      -0.00065895       0.00154931
C       14.50957381      10.94014536      12.92041153      -0.00239983      -0.00436420      -0.00246538
C       14.28229378      11.97529922      10.59914846       0.00217770       0.00500817       0.00116030
Si      12.11908967      14.02216976      12.94133193      -0.00018267       0.00008517      -0.00050137
H       10.10363871      10.96684390      10.53785486      -0.00171470       0.00352954      -0.00033207
H       11.24082210      12.24020381      10.00960716      -0.00525635       0.00853186       0.00336797
H        9.97560553      12.60339793      11.21669661      -0.00431430       0.00031236       0.00736145
H       12.22762083      10.54593146      11.59722753      -0.00030128       0.00210550      -0.00541681
H       11.53419984      10.52218462      14.00694322       0.00590641      -0.00825156      -0.00408105