25
Lattice="20.0 0.0 0.0 0.0 20.0 0.0 0.0 0.0 20.0" Properties=species:S:1:pos:R:3:forces:R:3 mode=1 frequency_thz=-1.013901067 interpolation_step=0 pbc="T T T"
C        7.88375162       9.36863191       8.87121135      -0.03421212       0.02086308       0.02118119
C        8.85965651       8.92916528       9.96148035      -0.00135033       0.00526039      -0.01362771
C        8.10198083       8.41267515      11.18260291       0.03429418      -0.02880102      -0.00663862
N        9.79792367       9.99168102      10.31310838      -0.00180680       0.00584142      -0.01494246
C       11.21385905       9.68315373      10.09426031      -0.00005556      -0.00279407       0.00848271
C       11.65821138       8.47209756      10.90818933      -0.01890698      -0.00539768       0.01431098
C       11.50759155       9.46931755       8.61232088       0.02176980      -0.00369880       0.01263496
Si       9.30130887      11.52783049      10.90027106       0.00031529       0.00785361      -0.01870627
H        7.28180638       8.50559419       8.56036183      -0.00756111       0.00555409       0.00291445
H        8.41896577       9.74800712       7.99297971      -0.01781245       0.01603545       0.00566316
H        7.19914621      10.15191563       9.22383304      -0.01165669      -0.00046183       0.01720307
H        9.47008175       8.10835935       9.56439849      -0.00122333       0.00578673      -0.01406941
H        8.79502590       8.10029515      11.97263972       0.01643489      -0.01387447      -0.00982277
H        7.42908042       9.17445401      11.59718585       0.01282198      -0.01184929       0.00915473
H        7.49701037       7.54524387      10.89070823       0.00808797      -0.00647163      -0.00365460
H       11.79200272      10.55528742      10.43941316      -0.00016385      -0.00174774       0.00500557
H       12.74711728       8.36731962      10.83462124      -0.00540327      -0.00362396       0.00828170
H       11.39631986       8.58270172      11.96657877      -0.00926266      -0.00117251       0.00317453
H       11.20587992       7.54644829      10.53010583      -0.00575968      -0.00073701       0.00240550
H       11.03710696       8.54892343       8.24316331       0.00768722      -0.00100199       0.00179139
H       11.14890593      10.30961592       8.00661440       0.00904521      -0.00106658       0.00205746
H       12.59003552       9.37805448       8.46458911       0.00692120      -0.00134408       0.00826882
H       10.29549678      11.97761326      11.90744743       0.00784541       0.00795730      -0.01414022
H        7.96156103      11.44325011      11.53505847       0.00667005      -0.00232094       0.01008550
H        9.26310036      12.47232603       9.75349586      -0.01414553      -0.00152217      -0.00551526
25
Lattice="20.0 0.0 0.0 0.0 20.0 0.0 0.0 0.0 20.0" Properties=species:S:1:pos:R:3:forces:R:3 mode=1 frequency_thz=-1.013901067 interpolation_step=1 pbc="T T T"
C        7.88033040       9.37071822       8.87332947      -0.03421212       0.02086308       0.02118119
C        8.85952148       8.92969132       9.96011758      -0.00135033       0.00526039      -0.01362771
C        8.10541025       8.40979504      11.18193904       0.03429418      -0.02880102      -0.00663862
N        9.79774298       9.99226517      10.31161413      -0.00180680       0.00584142      -0.01494246
C       11.21385349       9.68287432      10.09510858      -0.00005556      -0.00279407       0.00848271
C       11.65632069       8.47155779      10.90962042      -0.01890698      -0.00539768       0.01431098
C       11.50976853       9.46894767       8.61358438       0.02176980      -0.00369880       0.01263496
Si       9.30134040      11.52861585      10.89840044       0.00031529       0.00785361      -0.01870627
H        7.28105027       8.50614960       8.56065328      -0.00756111       0.00555409       0.00291445
H        8.41718452       9.74961066       7.99354602      -0.01781245       0.01603545       0.00566316
H        7.19798054      10.15186944       9.22555334      -0.01165669      -0.00046183       0.01720307
H        9.46995942       8.10893802       9.56299155      -0.00122333       0.00578673      -0.01406941
H        8.79666939       8.09890771      11.97165745       0.01643489      -0.01387447      -0.00982277
H        7.43036262       9.17326908      11.59810132       0.01282198      -0.01184929       0.00915473
H        7.49781917       7.54459670      10.89034277       0.00808797      -0.00647163      -0.00365460
H       11.79198633      10.55511265      10.43991372      -0.00016385      -0.00174774       0.00500557
H       12.74657695       8.36695722      10.83544941      -0.00540327      -0.00362396       0.00828170
H       11.39539359       8.58258447      11.96689623      -0.00926266      -0.00117251       0.00317453
H       11.20530395       7.54637459      10.53034638      -0.00575968      -0.00073701       0.00240550
H       11.03787569       8.54882323       8.24334245       0.00768722      -0.00100199       0.00179139
H       11.14981045      10.30950926       8.00682014       0.00904521      -0.00106658       0.00205746
H       12.59072764       9.37792008       8.46541600       0.00692120      -0.00134408       0.00826882
H       10.29628132      11.97840899      11.90603341       0.00784541       0.00795730      -0.01414022
H        7.96222803      11.44301802      11.53606702       0.00667005      -0.00232094       0.01008550
H        9.26168581      12.47217382       9.75294434      -0.01414553      -0.00152217      -0.00551526
25
Lattice="20.0 0.0 0.0 0.0 20.0 0.0 0.0 0.0 20.0" Properties=species:S:1:pos:R:3:forces:R:3 mode=1 frequency_thz=-1.013901067 interpolation_step=2 pbc="T T T"
C        7.87690919       9.37280452       8.87544759      -0.03421212       0.02086308       0.02118119
C        8.85938644       8.93021735       9.95875481      -0.00135033       0.00526039      -0.01362771
C        8.10883967       8.40691494      11.18127518       0.03429418      -0.02880102      -0.00663862
N        9.79756230       9.99284931      10.31011989      -0.00180680       0.00584142      -0.01494246
C       11.21384793       9.68259492      10.09595685      -0.00005556      -0.00279407       0.00848271
C       11.65442999       8.47101802      10.91105152      -0.01890698      -0.00539768       0.01431098
C       11.51194551       9.46857779       8.61484787       0.02176980      -0.00369880       0.01263496
Si       9.30137193      11.52940121      10.89652981       0.00031529       0.00785361      -0.01870627
H        7.28029416       8.50670501       8.56094472      -0.00756111       0.00555409       0.00291445
H        8.41540327       9.75121421       7.99411234      -0.01781245       0.01603545       0.00566316
H        7.19681487      10.15182326       9.22727365      -0.01165669      -0.00046183       0.01720307
H        9.46983709       8.10951669       9.56158460      -0.00122333       0.00578673      -0.01406941
H        8.79831288       8.09752026      11.97067517       0.01643489      -0.01387447      -0.00982277
H        7.43164482       9.17208415      11.59901679       0.01282198      -0.01184929       0.00915473
H        7.49862796       7.54394954      10.88997731       0.00808797      -0.00647163      -0.00365460
H       11.79196995      10.55493788      10.44041428      -0.00016385      -0.00174774       0.00500557
H       12.74603662       8.36659482      10.83627758      -0.00540327      -0.00362396       0.00828170
H       11.39446733       8.58246722      11.96721368      -0.00926266      -0.00117251       0.00317453
H       11.20472798       7.54630089      10.53058693      -0.00575968      -0.00073701       0.00240550
H       11.03864441       8.54872303       8.24352159       0.00768722      -0.00100199       0.00179139
H       11.15071497      10.30940260       8.00702589       0.00904521      -0.00106658       0.00205746
H       12.59141976       9.37778567       8.46624288       0.00692120      -0.00134408       0.00826882
H       10.29706586      11.97920472      11.90461939       0.00784541       0.00795730      -0.01414022
H        7.96289504      11.44278592      11.53707557       0.00667005      -0.00232094       0.01008550
H        9.26027126      12.47202160       9.75239281      -0.01414553      -0.00152217      -0.00551526
25
Lattice="20.0 0.0 0.0 0.0 20.0 0.0 0.0 0.0 20.0" Properties=species:S:1:pos:R:3:forces:R:3 mode=1 frequency_thz=-1.013901067 interpolation_step=3 pbc="T T T"
C        7.87348798       9.37489083       8.87756571      -0.03421212       0.02086308       0.02118119
C        8.85925141       8.93074339       9.95739204      -0.00135033       0.00526039      -0.01362771
C        8.11226908       8.40403484      11.18061132       0.03429418      -0.02880102      -0.00663862
N        9.79738162       9.99343345      10.30862564      -0.00180680       0.00584142      -0.01494246
C       11.21384238       9.68231551      10.09680512      -0.00005556      -0.00279407       0.00848271
C       11.65253929       8.47047825      10.91248262      -0.01890698      -0.00539768       0.01431098
C       11.51412249       9.46820791       8.61611137       0.02176980      -0.00369880       0.01263496
Si       9.30140346      11.53018657      10.89465918       0.00031529       0.00785361      -0.01870627
H        7.27953805       8.50726042       8.56123617      -0.00756111       0.00555409       0.00291445
H        8.41362203       9.75281775       7.99467865      -0.01781245       0.01603545       0.00566316
H        7.19564920      10.15177708       9.22899396      -0.01165669      -0.00046183       0.01720307
H        9.46971475       8.11009537       9.56017766      -0.00122333       0.00578673      -0.01406941
H        8.79995637       8.09613281      11.96969289       0.01643489      -0.01387447      -0.00982277
H        7.43292702       9.17089922      11.59993226       0.01282198      -0.01184929       0.00915473
H        7.49943676       7.54330238      10.88961185       0.00808797      -0.00647163      -0.00365460
H       11.79195356      10.55476310      10.44091484      -0.00016385      -0.00174774       0.00500557
H       12.74549630       8.36623243      10.83710575      -0.00540327      -0.00362396       0.00828170
H       11.39354106       8.58234997      11.96753113      -0.00926266      -0.00117251       0.00317453
H       11.20415201       7.54622719      10.53082748      -0.00575968      -0.00073701       0.00240550
H       11.03941313       8.54862283       8.24370073       0.00768722      -0.00100199       0.00179139
H       11.15161949      10.30929594       8.00723164       0.00904521      -0.00106658       0.00205746
H       12.59211188       9.37765126       8.46706976       0.00692120      -0.00134408       0.00826882
H       10.29785040      11.98000045      11.90320537       0.00784541       0.00795730      -0.01414022
H        7.96356204      11.44255383      11.53808412       0.00667005      -0.00232094       0.01008550
H        9.25885670      12.47186938       9.75184128      -0.01414553      -0.00152217      -0.00551526
25
Lattice="20.0 0.0 0.0 0.0 20.0 0.0 0.0 0.0 20.0" Properties=species:S:1:pos:R:3:forces:R:3 mode=1 frequency_thz=-1.013901067 interpolation_step=4 pbc="T T T"
C        7.87006677       9.37697714       8.87968383      -0.03421212       0.02086308       0.02118119
C        8.85911638       8.93126943       9.95602926      -0.00135033       0.00526039      -0.01362771
C        8.11569850       8.40115474      11.17994746       0.03429418      -0.02880102      -0.00663862
N        9.79720094       9.99401759      10.30713140      -0.00180680       0.00584142      -0.01494246
C       11.21383682       9.68203610      10.09765339      -0.00005556      -0.00279407       0.00848271
C       11.65064859       8.46993849      10.91391372      -0.01890698      -0.00539768       0.01431098
C       11.51629947       9.46783803       8.61737486       0.02176980      -0.00369880       0.01263496
Si       9.30143498      11.53097194      10.89278856       0.00031529       0.00785361      -0.01870627
H        7.27878194       8.50781582       8.56152761      -0.00756111       0.00555409       0.00291445
H        8.41184078       9.75442130       7.99524497      -0.01781245       0.01603545       0.00566316
H        7.19448354      10.15173090       9.23071426      -0.01165669      -0.00046183       0.01720307
H        9.46959242       8.11067404       9.55877072      -0.00122333       0.00578673      -0.01406941
H        8.80159986       8.09474537      11.96871062       0.01643489      -0.01387447      -0.00982277
H        7.43420922       9.16971429      11.60084774       0.01282198      -0.01184929       0.00915473
H        7.50024556       7.54265522      10.88924639       0.00808797      -0.00647163      -0.00365460
H       11.79193718      10.55458833      10.44141539      -0.00016385      -0.00174774       0.00500557
H       12.74495597       8.36587003      10.83793392      -0.00540327      -0.00362396       0.00828170
H       11.39261480       8.58223272      11.96784859      -0.00926266      -0.00117251       0.00317453
H       11.20357604       7.54615349      10.53106803      -0.00575968      -0.00073701       0.00240550
H       11.04018185       8.54852263       8.24387987       0.00768722      -0.00100199       0.00179139
H       11.15252401      10.30918929       8.00743738       0.00904521      -0.00106658       0.00205746
H       12.59280400       9.37751685       8.46789664       0.00692120      -0.00134408       0.00826882
H       10.29863494      11.98079618      11.90179135       0.00784541       0.00795730      -0.01414022
H        7.96422905      11.44232174      11.53909267       0.00667005      -0.00232094       0.01008550
H        9.25744215      12.47171717       9.75128976      -0.01414553      -0.00152217      -0.00551526
25
Lattice="20.0 0.0 0.0 0.0 20.0 0.0 0.0 0.0 20.0" Properties=species:S:1:pos:R:3:forces:R:3 mode=1 frequency_thz=-1.013901067 interpolation_step=5 pbc="T T T"
C        7.86664556       9.37906345       8.88180194      -0.03421212       0.02086308       0.02118119
C        8.85898135       8.93179547       9.95466649      -0.00135033       0.00526039      -0.01362771
C        8.11912792       8.39827464      11.17928359       0.03429418      -0.02880102      -0.00663862
N        9.79702026       9.99460174      10.30563715      -0.00180680       0.00584142      -0.01494246
C       11.21383126       9.68175669      10.09850166      -0.00005556      -0.00279407       0.00848271
C       11.64875789       8.46939872      10.91534482      -0.01890698      -0.00539768       0.01431098
C       11.51847645       9.46746815       8.61863836       0.02176980      -0.00369880       0.01263496
Si       9.30146651      11.53175730      10.89091793       0.00031529       0.00785361      -0.01870627
H        7.27802583       8.50837123       8.56181906      -0.00756111       0.00555409       0.00291445
H        8.41005954       9.75602484       7.99581129      -0.01781245       0.01603545       0.00566316
H        7.19331787      10.15168471       9.23243457      -0.01165669      -0.00046183       0.01720307
H        9.46947009       8.11125271       9.55736378      -0.00122333       0.00578673      -0.01406941
H        8.80324335       8.09335792      11.96772834       0.01643489      -0.01387447      -0.00982277
H        7.43549141       9.16852936      11.60176321       0.01282198      -0.01184929       0.00915473
H        7.50105436       7.54200805      10.88888093       0.00808797      -0.00647163      -0.00365460
H       11.79192079      10.55441355      10.44191595      -0.00016385      -0.00174774       0.00500557
H       12.74441564       8.36550764      10.83876209      -0.00540327      -0.00362396       0.00828170
H       11.39168853       8.58211547      11.96816604      -0.00926266      -0.00117251       0.00317453
H       11.20300008       7.54607979      10.53130858      -0.00575968      -0.00073701       0.00240550
H       11.04095058       8.54842243       8.24405901       0.00768722      -0.00100199       0.00179139
H       11.15342853      10.30908263       8.00764313       0.00904521      -0.00106658       0.00205746
H       12.59349612       9.37738244       8.46872352       0.00692120      -0.00134408       0.00826882
H       10.29941948      11.98159191      11.90037733       0.00784541       0.00795730      -0.01414022
H        7.96489605      11.44208964      11.54010122       0.00667005      -0.00232094       0.01008550
H        9.25602760      12.47156495       9.75073823      -0.01414553      -0.00152217      -0.00551526
25
Lattice="20.0 0.0 0.0 0.0 20.0 0.0 0.0 0.0 20.0" Properties=species:S:1:pos:R:3:forces:R:3 mode=1 frequency_thz=-1.013901067 interpolation_step=6 pbc="T T T"
C        7.86322435       9.38114976       8.88392006      -0.03421212       0.02086308       0.02118119
C        8.85884631       8.93232151       9.95330372      -0.00135033       0.00526039      -0.01362771
C        8.12255734       8.39539454      11.17861973       0.03429418      -0.02880102      -0.00663862
N        9.79683958       9.99518588      10.30414290      -0.00180680       0.00584142      -0.01494246
C       11.21382571       9.68147729      10.09934993      -0.00005556      -0.00279407       0.00848271
C       11.64686720       8.46885895      10.91677592      -0.01890698      -0.00539768       0.01431098
C       11.52065343       9.46709827       8.61990186       0.02176980      -0.00369880       0.01263496
Si       9.30149804      11.53254266      10.88904730       0.00031529       0.00785361      -0.01870627
H        7.27726972       8.50892664       8.56211050      -0.00756111       0.00555409       0.00291445
H        8.40827829       9.75762839       7.99637760      -0.01781245       0.01603545       0.00566316
H        7.19215220      10.15163853       9.23415488      -0.01165669      -0.00046183       0.01720307
H        9.46934775       8.11183138       9.55595684      -0.00122333       0.00578673      -0.01406941
H        8.80488684       8.09197047      11.96674606       0.01643489      -0.01387447      -0.00982277
H        7.43677361       9.16734443      11.60267868       0.01282198      -0.01184929       0.00915473
H        7.50186315       7.54136089      10.88851547       0.00808797      -0.00647163      -0.00365460
H       11.79190441      10.55423878      10.44241651      -0.00016385      -0.00174774       0.00500557
H       12.74387531       8.36514524      10.83959026      -0.00540327      -0.00362396       0.00828170
H       11.39076226       8.58199822      11.96848349      -0.00926266      -0.00117251       0.00317453
H       11.20242411       7.54600608      10.53154913      -0.00575968      -0.00073701       0.00240550
H       11.04171930       8.54832224       8.24423815       0.00768722      -0.00100199       0.00179139
H       11.15433305      10.30897597       8.00784888       0.00904521      -0.00106658       0.00205746
H       12.59418824       9.37724804       8.46955041       0.00692120      -0.00134408       0.00826882
H       10.30020402      11.98238764      11.89896330       0.00784541       0.00795730      -0.01414022
H        7.96556306      11.44185755      11.54110977       0.00667005      -0.00232094       0.01008550
H        9.25461304      12.47141273       9.75018671      -0.01414553      -0.00152217      -0.00551526
25
Lattice="20.0 0.0 0.0 0.0 20.0 0.0 0.0 0.0 20.0" Properties=species:S:1:pos:R:3:forces:R:3 mode=1 frequency_thz=-1.013901067 interpolation_step=7 pbc="T T T"
C        7.85980313       9.38323606       8.88603818      -0.03421212       0.02086308       0.02118119
C        8.85871128       8.93284755       9.95194095      -0.00135033       0.00526039      -0.01362771
C        8.12598676       8.39251443      11.17795587       0.03429418      -0.02880102      -0.00663862
N        9.79665890       9.99577002      10.30264866      -0.00180680       0.00584142      -0.01494246
C       11.21382015       9.68119788      10.10019820      -0.00005556      -0.00279407       0.00848271
C       11.64497650       8.46831918      10.91820701      -0.01890698      -0.00539768       0.01431098
C       11.52283041       9.46672839       8.62116535       0.02176980      -0.00369880       0.01263496
Si       9.30152957      11.53332802      10.88717667       0.00031529       0.00785361      -0.01870627
H        7.27651361       8.50948205       8.56240195      -0.00756111       0.00555409       0.00291445
H        8.40649705       9.75923193       7.99694392      -0.01781245       0.01603545       0.00566316
H        7.19098653      10.15159235       9.23587518      -0.01165669      -0.00046183       0.01720307
H        9.46922542       8.11241006       9.55454990      -0.00122333       0.00578673      -0.01406941
H        8.80653033       8.09058303      11.96576379       0.01643489      -0.01387447      -0.00982277
H        7.43805581       9.16615950      11.60359415       0.01282198      -0.01184929       0.00915473
H        7.50267195       7.54071373      10.88815001       0.00808797      -0.00647163      -0.00365460
H       11.79188802      10.55406401      10.44291706      -0.00016385      -0.00174774       0.00500557
H       12.74333499       8.36478285      10.84041843      -0.00540327      -0.00362396       0.00828170
H       11.38983600       8.58188097      11.96880094      -0.00926266      -0.00117251       0.00317453
H       11.20184814       7.54593238      10.53178968      -0.00575968      -0.00073701       0.00240550
H       11.04248802       8.54822204       8.24441729       0.00768722      -0.00100199       0.00179139
H       11.15523758      10.30886931       8.00805462       0.00904521      -0.00106658       0.00205746
H       12.59488036       9.37711363       8.47037729       0.00692120      -0.00134408       0.00826882
H       10.30098857      11.98318337      11.89754928       0.00784541       0.00795730      -0.01414022
H        7.96623006      11.44162546      11.54211832       0.00667005      -0.00232094       0.01008550
H        9.25319849      12.47126051       9.74963518      -0.01414553      -0.00152217      -0.00551526
25
Lattice="20.0 0.0 0.0 0.0 20.0 0.0 0.0 0.0 20.0" Properties=species:S:1:pos:R:3:forces:R:3 mode=1 frequency_thz=-1.013901067 interpolation_step=8 pbc="T T T"
C        7.85638192       9.38532237       8.88815630      -0.03421212       0.02086308       0.02118119
C        8.85857625       8.93337359       9.95057818      -0.00135033       0.00526039      -0.01362771
C        8.12941617       8.38963433      11.17729201       0.03429418      -0.02880102      -0.00663862
N        9.79647822       9.99635416      10.30115441      -0.00180680       0.00584142      -0.01494246
C       11.21381459       9.68091847      10.10104647      -0.00005556      -0.00279407       0.00848271
C       11.64308580       8.46777942      10.91963811      -0.01890698      -0.00539768       0.01431098
C       11.52500739       9.46635851       8.62242885       0.02176980      -0.00369880       0.01263496
Si       9.30156110      11.53411338      10.88530605       0.00031529       0.00785361      -0.01870627
H        7.27575750       8.51003746       8.56269339      -0.00756111       0.00555409       0.00291445
H        8.40471580       9.76083548       7.99751023      -0.01781245       0.01603545       0.00566316
H        7.18982086      10.15154616       9.23759549      -0.01165669      -0.00046183       0.01720307
H        9.46910309       8.11298873       9.55314296      -0.00122333       0.00578673      -0.01406941
H        8.80817381       8.08919558      11.96478151       0.01643489      -0.01387447      -0.00982277
H        7.43933801       9.16497458      11.60450963       0.01282198      -0.01184929       0.00915473
H        7.50348075       7.54006656      10.88778455       0.00808797      -0.00647163      -0.00365460
H       11.79187164      10.55388923      10.44341762      -0.00016385      -0.00174774       0.00500557
H       12.74279466       8.36442045      10.84124660      -0.00540327      -0.00362396       0.00828170
H       11.38890973       8.58176372      11.96911840      -0.00926266      -0.00117251       0.00317453
H       11.20127217       7.54585868      10.53203023      -0.00575968      -0.00073701       0.00240550
H       11.04325674       8.54812184       8.24459643       0.00768722      -0.00100199       0.00179139
H       11.15614210      10.30876265       8.00826037       0.00904521      -0.00106658       0.00205746
H       12.59557248       9.37697922       8.47120417       0.00692120      -0.00134408       0.00826882
H       10.30177311      11.98397910      11.89613526       0.00784541       0.00795730      -0.01414022
H        7.96689707      11.44139336      11.54312687       0.00667005      -0.00232094       0.01008550
H        9.25178394      12.47110830       9.74908365      -0.01414553      -0.00152217      -0.00551526
25
Lattice="20.0 0.0 0.0 0.0 20.0 0.0 0.0 0.0 20.0" Properties=species:S:1:pos:R:3:forces:R:3 mode=1 frequency_thz=-1.013901067 interpolation_step=9 pbc="T T T"
C        7.85296071       9.38740868       8.89027442      -0.03421212       0.02086308       0.02118119
C        8.85844122       8.93389963       9.94921541      -0.00135033       0.00526039      -0.01362771
C        8.13284559       8.38675423      11.17662815       0.03429418      -0.02880102      -0.00663862
N        9.79629754       9.99693830      10.29966017      -0.00180680       0.00584142      -0.01494246
C       11.21380904       9.68063906      10.10189474      -0.00005556      -0.00279407       0.00848271
C       11.64119510       8.46723965      10.92106921      -0.01890698      -0.00539768       0.01431098
C       11.52718437       9.46598863       8.62369234       0.02176980      -0.00369880       0.01263496
Si       9.30159263      11.53489874      10.88343542       0.00031529       0.00785361      -0.01870627
H        7.27500139       8.51059287       8.56298484      -0.00756111       0.00555409       0.00291445
H        8.40293456       9.76243902       7.99807655      -0.01781245       0.01603545       0.00566316
H        7.18865519      10.15149998       9.23931580      -0.01165669      -0.00046183       0.01720307
H        9.46898075       8.11356740       9.55173602      -0.00122333       0.00578673      -0.01406941
H        8.80981730       8.08780813      11.96379923       0.01643489      -0.01387447      -0.00982277
H        7.44062021       9.16378965      11.60542510       0.01282198      -0.01184929       0.00915473
H        7.50428954       7.53941940      10.88741909       0.00808797      -0.00647163      -0.00365460
H       11.79185525      10.55371446      10.44391818      -0.00016385      -0.00174774       0.00500557
H       12.74225433       8.36405806      10.84207477      -0.00540327      -0.00362396       0.00828170
H       11.38798347       8.58164646      11.96943585      -0.00926266      -0.00117251       0.00317453
H       11.20069620       7.54578498      10.53227078      -0.00575968      -0.00073701       0.00240550
H       11.04402547       8.54802164       8.24477557       0.00768722      -0.00100199       0.00179139
H       11.15704662      10.30865600       8.00846611       0.00904521      -0.00106658       0.00205746
H       12.59626460       9.37684481       8.47203105       0.00692120      -0.00134408       0.00826882
H       10.30255765      11.98477483      11.89472124       0.00784541       0.00795730      -0.01414022
H        7.96756407      11.44116127      11.54413542       0.00667005      -0.00232094       0.01008550
H        9.25036938      12.47095608       9.74853213      -0.01414553      -0.00152217      -0.00551526
25
Lattice="20.0 0.0 0.0 0.0 20.0 0.0 0.0 0.0 20.0" Properties=species:S:1:pos:R:3:forces:R:3 mode=1 frequency_thz=-1.013901067 interpolation_step=10 pbc="T T T"
C        7.84953950       9.38949499       8.89239254      -0.03421212       0.02086308       0.02118119
C        8.85830618       8.93442567       9.94785264      -0.00135033       0.00526039      -0.01362771
C        8.13627501       8.38387413      11.17596428       0.03429418      -0.02880102      -0.00663862
N        9.79611686       9.99752245      10.29816592      -0.00180680       0.00584142      -0.01494246
C       11.21380348       9.68035966      10.10274302      -0.00005556      -0.00279407       0.00848271
C       11.63930440       8.46669988      10.92250031      -0.01890698      -0.00539768       0.01431098
C       11.52936135       9.46561875       8.62495584       0.02176980      -0.00369880       0.01263496
Si       9.30162416      11.53568410      10.88156479       0.00031529       0.00785361      -0.01870627
H        7.27424528       8.51114828       8.56327628      -0.00756111       0.00555409       0.00291445
H        8.40115331       9.76404257       7.99864287      -0.01781245       0.01603545       0.00566316
H        7.18748952      10.15145380       9.24103611      -0.01165669      -0.00046183       0.01720307
H        9.46885842       8.11414608       9.55032908      -0.00122333       0.00578673      -0.01406941
H        8.81146079       8.08642069      11.96281696       0.01643489      -0.01387447      -0.00982277
H        7.44190241       9.16260472      11.60634057       0.01282198      -0.01184929       0.00915473
H        7.50509834       7.53877224      10.88705363       0.00808797      -0.00647163      -0.00365460
H       11.79183887      10.55353968      10.44441874      -0.00016385      -0.00174774       0.00500557
H       12.74171401       8.36369566      10.84290294      -0.00540327      -0.00362396       0.00828170
H       11.38705720       8.58152921      11.96975330      -0.00926266      -0.00117251       0.00317453