25
Lattice="20.0 0.0 0.0 0.0 20.0 0.0 0.0 0.0 20.0" Properties=species:S:1:pos:R:3:forces:R:3 mode=2 frequency_thz=-0.7351286738 interpolation_step=0 pbc="T T T"
C        7.89334889       9.37051336       8.87505175      -0.02774589       0.01494769       0.01613473
C        8.86239635       8.92541735       9.96911596       0.00117641       0.00245498      -0.01314051
C        8.09817344       8.40370376      11.18453326       0.03164090      -0.03131935      -0.00849538
N        9.79937272       9.98581269      10.33076969      -0.00259915       0.00506739      -0.01175834
C       11.21496706       9.68280111      10.10247906      -0.00013486       0.00224054       0.00644913
C       11.66732246       8.46433888      10.90076439      -0.01217528       0.00094723       0.01081752
C       11.49872031       9.48395909       8.61688373       0.01737069       0.00295938       0.00938200
Si       9.29645403      11.52526085      10.90480615      -0.00574250       0.00332452      -0.00952219
H        7.30345734       8.50508845       8.54740746      -0.00539750       0.00363244       0.00157092
H        8.43640267       9.75958383       8.00560140      -0.01485870       0.01352165       0.00440815
H        7.20087432      10.14676916       9.22889036      -0.01017903      -0.00175027       0.01422776
H        9.47454167       8.10374464       9.57668473       0.00055533       0.00501047      -0.01268463
H        8.78465404       8.09898284      11.98308782       0.01480417      -0.01365499      -0.00902100
H        7.41483560       9.15955432      11.59125451       0.01068491      -0.01289916       0.00725897
H        7.49966042       7.53317498      10.88864004       0.00850920      -0.00787017      -0.00470946
H       11.79274250      10.55324592      10.45223162      -0.00073687       0.00024555       0.00389319
H       12.75252100       8.34666991      10.79633581      -0.00350599      -0.00144587       0.00536024
H       11.43649394       8.57818888      11.96593761      -0.00547888       0.00091589       0.00265228
H       11.19316582       7.54514816      10.53369330      -0.00427119       0.00090412       0.00247343
H       11.01625756       8.57331826       8.23932966       0.00717024       0.00039578       0.00116672
H       11.14417993      10.33383621       8.02214462       0.00607486       0.00049387       0.00157876
H       12.57908812       9.38393656       8.46194873       0.00564242       0.00189017       0.00623983
H       10.30273644      12.00242239      11.88642885       0.01380038       0.01542624      -0.02586015
H        7.96782720      11.43591406      11.56233642       0.01464929      -0.00763570       0.02673081
H        9.22929230      12.45190947       9.74379134      -0.03340018      -0.00680407      -0.00447561
25
Lattice="20.0 0.0 0.0 0.0 20.0 0.0 0.0 0.0 20.0" Properties=species:S:1:pos:R:3:forces:R:3 mode=2 frequency_thz=-0.7351286738 interpolation_step=1 pbc="T T T"
C        7.89057430       9.37200813       8.87666522      -0.02774589       0.01494769       0.01613473
C        8.86251399       8.92566285       9.96780191       0.00117641       0.00245498      -0.01314051
C        8.10133753       8.40057182      11.18368372       0.03164090      -0.03131935      -0.00849538
N        9.79911281       9.98631943      10.32959386      -0.00259915       0.00506739      -0.01175834
C       11.21495357       9.68302517      10.10312398      -0.00013486       0.00224054       0.00644913
C       11.66610494       8.46443360      10.90184614      -0.01217528       0.00094723       0.01081752
C       11.50045738       9.48425502       8.61782193       0.01737069       0.00295938       0.00938200
Si       9.29587978      11.52559330      10.90385393      -0.00574250       0.00332452      -0.00952219
H        7.30291759       8.50545169       8.54756456      -0.00539750       0.00363244       0.00157092
H        8.43491680       9.76093600       8.00604222      -0.01485870       0.01352165       0.00440815
H        7.19985642      10.14659413       9.23031313      -0.01017903      -0.00175027       0.01422776
H        9.47459720       8.10424569       9.57541627       0.00055533       0.00501047      -0.01268463
H        8.78613446       8.09761734      11.98218572       0.01480417      -0.01365499      -0.00902100
H        7.41590409       9.15826440      11.59198041       0.01068491      -0.01289916       0.00725897
H        7.50051134       7.53238797      10.88816909       0.00850920      -0.00787017      -0.00470946
H       11.79266881      10.55327047      10.45262094      -0.00073687       0.00024555       0.00389319
H       12.75217041       8.34652533      10.79687184      -0.00350599      -0.00144587       0.00536024
H       11.43594606       8.57828047      11.96620284      -0.00547888       0.00091589       0.00265228
H       11.19273870       7.54523857      10.53394065      -0.00427119       0.00090412       0.00247343
H       11.01697458       8.57335784       8.23944633       0.00717024       0.00039578       0.00116672
H       11.14478741      10.33388560       8.02230250       0.00607486       0.00049387       0.00157876
H       12.57965236       9.38412558       8.46257271       0.00564242       0.00189017       0.00623983
H       10.30411648      12.00396501      11.88384283       0.01380038       0.01542624      -0.02586015
H        7.96929212      11.43515049      11.56500950       0.01464929      -0.00763570       0.02673081
H        9.22595228      12.45122907       9.74334378      -0.03340018      -0.00680407      -0.00447561
25
Lattice="20.0 0.0 0.0 0.0 20.0 0.0 0.0 0.0 20.0" Properties=species:S:1:pos:R:3:forces:R:3 mode=2 frequency_thz=-0.7351286738 interpolation_step=2 pbc="T T T"
C        7.88779972       9.37350290       8.87827869      -0.02774589       0.01494769       0.01613473
C        8.86263163       8.92590834       9.96648786       0.00117641       0.00245498      -0.01314051
C        8.10450162       8.39743989      11.18283418       0.03164090      -0.03131935      -0.00849538
N        9.79885289       9.98682617      10.32841802      -0.00259915       0.00506739      -0.01175834
C       11.21494008       9.68324922      10.10376889      -0.00013486       0.00224054       0.00644913
C       11.66488741       8.46452832      10.90292790      -0.01217528       0.00094723       0.01081752
C       11.50219445       9.48455096       8.61876014       0.01737069       0.00295938       0.00938200
Si       9.29530553      11.52592575      10.90290171      -0.00574250       0.00332452      -0.00952219
H        7.30237784       8.50581494       8.54772165      -0.00539750       0.00363244       0.00157092
H        8.43343093       9.76228816       8.00648303      -0.01485870       0.01352165       0.00440815
H        7.19883852      10.14641910       9.23173591      -0.01017903      -0.00175027       0.01422776
H        9.47465274       8.10474673       9.57414781       0.00055533       0.00501047      -0.01268463
H        8.78761487       8.09625184      11.98128362       0.01480417      -0.01365499      -0.00902100
H        7.41697258       9.15697449      11.59270631       0.01068491      -0.01289916       0.00725897
H        7.50136226       7.53160095      10.88769815       0.00850920      -0.00787017      -0.00470946
H       11.79259513      10.55329503      10.45301026      -0.00073687       0.00024555       0.00389319
H       12.75181981       8.34638074      10.79740786      -0.00350599      -0.00144587       0.00536024
H       11.43539817       8.57837206      11.96646807      -0.00547888       0.00091589       0.00265228
H       11.19231159       7.54532898      10.53418799      -0.00427119       0.00090412       0.00247343
H       11.01769160       8.57339742       8.23956301       0.00717024       0.00039578       0.00116672
H       11.14539490      10.33393499       8.02246037       0.00607486       0.00049387       0.00157876
H       12.58021661       9.38431459       8.46319669       0.00564242       0.00189017       0.00623983
H       10.30549652      12.00550764      11.88125682       0.01380038       0.01542624      -0.02586015
H        7.97075705      11.43438692      11.56768258       0.01464929      -0.00763570       0.02673081
H        9.22261226      12.45054866       9.74289622      -0.03340018      -0.00680407      -0.00447561
25
Lattice="20.0 0.0 0.0 0.0 20.0 0.0 0.0 0.0 20.0" Properties=species:S:1:pos:R:3:forces:R:3 mode=2 frequency_thz=-0.7351286738 interpolation_step=3 pbc="T T T"
C        7.88502513       9.37499767       8.87989217      -0.02774589       0.01494769       0.01613473
C        8.86274927       8.92615384       9.96517381       0.00117641       0.00245498      -0.01314051
C        8.10766571       8.39430795      11.18198464       0.03164090      -0.03131935      -0.00849538
N        9.79859298       9.98733291      10.32724219      -0.00259915       0.00506739      -0.01175834
C       11.21492660       9.68347328      10.10441380      -0.00013486       0.00224054       0.00644913
C       11.66366988       8.46462305      10.90400965      -0.01217528       0.00094723       0.01081752
C       11.50393152       9.48484690       8.61969834       0.01737069       0.00295938       0.00938200
Si       9.29473128      11.52625821      10.90194949      -0.00574250       0.00332452      -0.00952219
H        7.30183809       8.50617818       8.54787874      -0.00539750       0.00363244       0.00157092
H        8.43194506       9.76364033       8.00692385      -0.01485870       0.01352165       0.00440815
H        7.19782061      10.14624408       9.23315869      -0.01017903      -0.00175027       0.01422776
H        9.47470827       8.10524778       9.57287935       0.00055533       0.00501047      -0.01268463
H        8.78909529       8.09488634      11.98038152       0.01480417      -0.01365499      -0.00902100
H        7.41804108       9.15568457      11.59343220       0.01068491      -0.01289916       0.00725897
H        7.50221318       7.53081393      10.88722720       0.00850920      -0.00787017      -0.00470946
H       11.79252144      10.55331958      10.45339958      -0.00073687       0.00024555       0.00389319
H       12.75146921       8.34623615      10.79794388      -0.00350599      -0.00144587       0.00536024
H       11.43485028       8.57846365      11.96673330      -0.00547888       0.00091589       0.00265228
H       11.19188447       7.54541940      10.53443533      -0.00427119       0.00090412       0.00247343
H       11.01840863       8.57343700       8.23967968       0.00717024       0.00039578       0.00116672
H       11.14600239      10.33398437       8.02261825       0.00607486       0.00049387       0.00157876
H       12.58078085       9.38450361       8.46382067       0.00564242       0.00189017       0.00623983
H       10.30687655      12.00705026      11.87867080       0.01380038       0.01542624      -0.02586015
H        7.97222198      11.43362335      11.57035566       0.01464929      -0.00763570       0.02673081
H        9.21927224      12.44986825       9.74244866      -0.03340018      -0.00680407      -0.00447561
25
Lattice="20.0 0.0 0.0 0.0 20.0 0.0 0.0 0.0 20.0" Properties=species:S:1:pos:R:3:forces:R:3 mode=2 frequency_thz=-0.7351286738 interpolation_step=4 pbc="T T T"
C        7.88225054       9.37649244       8.88150564      -0.02774589       0.01494769       0.01613473
C        8.86286691       8.92639934       9.96385975       0.00117641       0.00245498      -0.01314051
C        8.11082980       8.39117602      11.18113511       0.03164090      -0.03131935      -0.00849538
N        9.79833306       9.98783965      10.32606635      -0.00259915       0.00506739      -0.01175834
C       11.21491311       9.68369733      10.10505871      -0.00013486       0.00224054       0.00644913
C       11.66245235       8.46471777      10.90509140      -0.01217528       0.00094723       0.01081752
C       11.50566859       9.48514284       8.62063654       0.01737069       0.00295938       0.00938200
Si       9.29415703      11.52659066      10.90099727      -0.00574250       0.00332452      -0.00952219
H        7.30129834       8.50654142       8.54803583      -0.00539750       0.00363244       0.00157092
H        8.43045919       9.76499249       8.00736466      -0.01485870       0.01352165       0.00440815
H        7.19680271      10.14606905       9.23458146      -0.01017903      -0.00175027       0.01422776
H        9.47476380       8.10574883       9.57161088       0.00055533       0.00501047      -0.01268463
H        8.79057571       8.09352084      11.97947942       0.01480417      -0.01365499      -0.00902100
H        7.41910957       9.15439466      11.59415810       0.01068491      -0.01289916       0.00725897
H        7.50306410       7.53002692      10.88675625       0.00850920      -0.00787017      -0.00470946
H       11.79244775      10.55334414      10.45378890      -0.00073687       0.00024555       0.00389319
H       12.75111861       8.34609156      10.79847991      -0.00350599      -0.00144587       0.00536024
H       11.43430239       8.57855524      11.96699853      -0.00547888       0.00091589       0.00265228
H       11.19145735       7.54550981      10.53468268      -0.00427119       0.00090412       0.00247343
H       11.01912565       8.57347657       8.23979635       0.00717024       0.00039578       0.00116672
H       11.14660987      10.33403376       8.02277613       0.00607486       0.00049387       0.00157876
H       12.58134509       9.38469263       8.46444466       0.00564242       0.00189017       0.00623983
H       10.30825659      12.00859288      11.87608479       0.01380038       0.01542624      -0.02586015
H        7.97368691      11.43285978      11.57302874       0.01464929      -0.00763570       0.02673081
H        9.21593222      12.44918785       9.74200109      -0.03340018      -0.00680407      -0.00447561
25
Lattice="20.0 0.0 0.0 0.0 20.0 0.0 0.0 0.0 20.0" Properties=species:S:1:pos:R:3:forces:R:3 mode=2 frequency_thz=-0.7351286738 interpolation_step=5 pbc="T T T"
C        7.87947595       9.37798721       8.88311911      -0.02774589       0.01494769       0.01613473
C        8.86298456       8.92664484       9.96254570       0.00117641       0.00245498      -0.01314051
C        8.11399389       8.38804408      11.18028557       0.03164090      -0.03131935      -0.00849538
N        9.79807315       9.98834639      10.32489052      -0.00259915       0.00506739      -0.01175834
C       11.21489963       9.68392138      10.10570363      -0.00013486       0.00224054       0.00644913
C       11.66123483       8.46481249      10.90617315      -0.01217528       0.00094723       0.01081752
C       11.50740566       9.48543878       8.62157474       0.01737069       0.00295938       0.00938200
Si       9.29358278      11.52692311      10.90004505      -0.00574250       0.00332452      -0.00952219
H        7.30075859       8.50690467       8.54819292      -0.00539750       0.00363244       0.00157092
H        8.42897332       9.76634466       8.00780548      -0.01485870       0.01352165       0.00440815
H        7.19578481      10.14589402       9.23600424      -0.01017903      -0.00175027       0.01422776
H        9.47481933       8.10624987       9.57034242       0.00055533       0.00501047      -0.01268463
H        8.79205612       8.09215534      11.97857732       0.01480417      -0.01365499      -0.00902100
H        7.42017806       9.15310474      11.59488400       0.01068491      -0.01289916       0.00725897
H        7.50391502       7.52923990      10.88628531       0.00850920      -0.00787017      -0.00470946
H       11.79237407      10.55336869      10.45417822      -0.00073687       0.00024555       0.00389319
H       12.75076801       8.34594698      10.79901593      -0.00350599      -0.00144587       0.00536024
H       11.43375450       8.57864683      11.96726375      -0.00547888       0.00091589       0.00265228
H       11.19103023       7.54560022      10.53493002      -0.00427119       0.00090412       0.00247343
H       11.01984268       8.57351615       8.23991302       0.00717024       0.00039578       0.00116672
H       11.14721736      10.33408315       8.02293400       0.00607486       0.00049387       0.00157876
H       12.58190933       9.38488164       8.46506864       0.00564242       0.00189017       0.00623983
H       10.30963663      12.01013551      11.87349877       0.01380038       0.01542624      -0.02586015
H        7.97515184      11.43209621      11.57570182       0.01464929      -0.00763570       0.02673081
H        9.21259221      12.44850744       9.74155353      -0.03340018      -0.00680407      -0.00447561
25
Lattice="20.0 0.0 0.0 0.0 20.0 0.0 0.0 0.0 20.0" Properties=species:S:1:pos:R:3:forces:R:3 mode=2 frequency_thz=-0.7351286738 interpolation_step=6 pbc="T T T"
C        7.87670136       9.37948198       8.88473259      -0.02774589       0.01494769       0.01613473
C        8.86310220       8.92689033       9.96123165       0.00117641       0.00245498      -0.01314051
C        8.11715798       8.38491215      11.17943603       0.03164090      -0.03131935      -0.00849538
N        9.79781323       9.98885313      10.32371469      -0.00259915       0.00506739      -0.01175834
C       11.21488614       9.68414544      10.10634854      -0.00013486       0.00224054       0.00644913
C       11.66001730       8.46490721      10.90725491      -0.01217528       0.00094723       0.01081752
C       11.50914272       9.48573472       8.62251294       0.01737069       0.00295938       0.00938200
Si       9.29300853      11.52725556      10.89909283      -0.00574250       0.00332452      -0.00952219
H        7.30021884       8.50726791       8.54835002      -0.00539750       0.00363244       0.00157092
H        8.42748745       9.76769682       8.00824629      -0.01485870       0.01352165       0.00440815
H        7.19476691      10.14571900       9.23742702      -0.01017903      -0.00175027       0.01422776
H        9.47487487       8.10675092       9.56907396       0.00055533       0.00501047      -0.01268463
H        8.79353654       8.09078984      11.97767522       0.01480417      -0.01365499      -0.00902100
H        7.42124655       9.15181482      11.59560990       0.01068491      -0.01289916       0.00725897
H        7.50476594       7.52845288      10.88581436       0.00850920      -0.00787017      -0.00470946
H       11.79230038      10.55339325      10.45456754      -0.00073687       0.00024555       0.00389319
H       12.75041741       8.34580239      10.79955195      -0.00350599      -0.00144587       0.00536024
H       11.43320661       8.57873842      11.96752898      -0.00547888       0.00091589       0.00265228
H       11.19060311       7.54569063      10.53517736      -0.00427119       0.00090412       0.00247343
H       11.02055970       8.57355573       8.24002969       0.00717024       0.00039578       0.00116672
H       11.14782485      10.33413253       8.02309188       0.00607486       0.00049387       0.00157876
H       12.58247357       9.38507066       8.46569262       0.00564242       0.00189017       0.00623983
H       10.31101667      12.01167813      11.87091276       0.01380038       0.01542624      -0.02586015
H        7.97661677      11.43133264      11.57837490       0.01464929      -0.00763570       0.02673081
H        9.20925219      12.44782703       9.74110597      -0.03340018      -0.00680407      -0.00447561
25
Lattice="20.0 0.0 0.0 0.0 20.0 0.0 0.0 0.0 20.0" Properties=species:S:1:pos:R:3:forces:R:3 mode=2 frequency_thz=-0.7351286738 interpolation_step=7 pbc="T T T"
C        7.87392677       9.38097675       8.88634606      -0.02774589       0.01494769       0.01613473
C        8.86321984       8.92713583       9.95991760       0.00117641       0.00245498      -0.01314051
C        8.12032207       8.38178021      11.17858649       0.03164090      -0.03131935      -0.00849538
N        9.79755332       9.98935987      10.32253885      -0.00259915       0.00506739      -0.01175834
C       11.21487265       9.68436949      10.10699345      -0.00013486       0.00224054       0.00644913
C       11.65879977       8.46500194      10.90833666      -0.01217528       0.00094723       0.01081752
C       11.51087979       9.48603065       8.62345114       0.01737069       0.00295938       0.00938200
Si       9.29243428      11.52758801      10.89814061      -0.00574250       0.00332452      -0.00952219
H        7.29967909       8.50763115       8.54850711      -0.00539750       0.00363244       0.00157092
H        8.42600158       9.76904899       8.00868711      -0.01485870       0.01352165       0.00440815
H        7.19374900      10.14554397       9.23884979      -0.01017903      -0.00175027       0.01422776
H        9.47493040       8.10725197       9.56780549       0.00055533       0.00501047      -0.01268463
H        8.79501696       8.08942434      11.97677312       0.01480417      -0.01365499      -0.00902100
H        7.42231504       9.15052491      11.59633579       0.01068491      -0.01289916       0.00725897
H        7.50561686       7.52766586      10.88534341       0.00850920      -0.00787017      -0.00470946
H       11.79222669      10.55341780      10.45495686      -0.00073687       0.00024555       0.00389319
H       12.75006682       8.34565780      10.80008798      -0.00350599      -0.00144587       0.00536024
H       11.43265873       8.57883001      11.96779421      -0.00547888       0.00091589       0.00265228
H       11.19017599       7.54578105      10.53542470      -0.00427119       0.00090412       0.00247343
H       11.02127672       8.57359531       8.24014636       0.00717024       0.00039578       0.00116672
H       11.14843233      10.33418192       8.02324975       0.00607486       0.00049387       0.00157876
H       12.58303781       9.38525968       8.46631660       0.00564242       0.00189017       0.00623983
H       10.31239671      12.01322076      11.86832674       0.01380038       0.01542624      -0.02586015
H        7.97808170      11.43056907      11.58104798       0.01464929      -0.00763570       0.02673081
H        9.20591217      12.44714663       9.74065841      -0.03340018      -0.00680407      -0.00447561
25
Lattice="20.0 0.0 0.0 0.0 20.0 0.0 0.0 0.0 20.0" Properties=species:S:1:pos:R:3:forces:R:3 mode=2 frequency_thz=-0.7351286738 interpolation_step=8 pbc="T T T"
C        7.87115218       9.38247152       8.88795953      -0.02774589       0.01494769       0.01613473
C        8.86333748       8.92738133       9.95860355       0.00117641       0.00245498      -0.01314051
C        8.12348616       8.37864828      11.17773695       0.03164090      -0.03131935      -0.00849538
N        9.79729340       9.98986661      10.32136302      -0.00259915       0.00506739      -0.01175834
C       11.21485917       9.68459355      10.10763836      -0.00013486       0.00224054       0.00644913
C       11.65758224       8.46509666      10.90941841      -0.01217528       0.00094723       0.01081752
C       11.51261686       9.48632659       8.62438934       0.01737069       0.00295938       0.00938200
Si       9.29186003      11.52792046      10.89718839      -0.00574250       0.00332452      -0.00952219
H        7.29913934       8.50799440       8.54866420      -0.00539750       0.00363244       0.00157092
H        8.42451571       9.77040115       8.00912793      -0.01485870       0.01352165       0.00440815
H        7.19273110      10.14536894       9.24027257      -0.01017903      -0.00175027       0.01422776
H        9.47498593       8.10775302       9.56653703       0.00055533       0.00501047      -0.01268463
H        8.79649737       8.08805884      11.97587102       0.01480417      -0.01365499      -0.00902100
H        7.42338353       9.14923499      11.59706169       0.01068491      -0.01289916       0.00725897
H        7.50646778       7.52687885      10.88487247       0.00850920      -0.00787017      -0.00470946
H       11.79215300      10.55344236      10.45534618      -0.00073687       0.00024555       0.00389319
H       12.74971622       8.34551321      10.80062400      -0.00350599      -0.00144587       0.00536024
H       11.43211084       8.57892160      11.96805944      -0.00547888       0.00091589       0.00265228
H       11.18974887       7.54587146      10.53567205      -0.00427119       0.00090412       0.00247343
H       11.02199375       8.57363489       8.24026304       0.00717024       0.00039578       0.00116672
H       11.14903982      10.33423131       8.02340763       0.00607486       0.00049387       0.00157876
H       12.58360206       9.38544869       8.46694059       0.00564242       0.00189017       0.00623983
H       10.31377674      12.01476338      11.86574073       0.01380038       0.01542624      -0.02586015
H        7.97954663      11.42980550      11.58372106       0.01464929      -0.00763570       0.02673081
H        9.20257215      12.44646622       9.74021085      -0.03340018      -0.00680407      -0.00447561
25
Lattice="20.0 0.0 0.0 0.0 20.0 0.0 0.0 0.0 20.0" Properties=species:S:1:pos:R:3:forces:R:3 mode=2 frequency_thz=-0.7351286738 interpolation_step=9 pbc="T T T"
C        7.86837759       9.38396629       8.88957301      -0.02774589       0.01494769       0.01613473
C        8.86345512       8.92762683       9.95728950       0.00117641       0.00245498      -0.01314051
C        8.12665025       8.37551634      11.17688741       0.03164090      -0.03131935      -0.00849538
N        9.79703349       9.99037335      10.32018718      -0.00259915       0.00506739      -0.01175834
C       11.21484568       9.68481760      10.10828328      -0.00013486       0.00224054       0.00644913
C       11.65636472       8.46519138      10.91050016      -0.01217528       0.00094723       0.01081752
C       11.51435393       9.48662253       8.62532754       0.01737069       0.00295938       0.00938200
Si       9.29128578      11.52825291      10.89623617      -0.00574250       0.00332452      -0.00952219
H        7.29859959       8.50835764       8.54882129      -0.00539750       0.00363244       0.00157092
H        8.42302984       9.77175332       8.00956874      -0.01485870       0.01352165       0.00440815
H        7.19171320      10.14519392       9.24169534      -0.01017903      -0.00175027       0.01422776
H        9.47504146       8.10825406       9.56526857       0.00055533       0.00501047      -0.01268463
H        8.79797779       8.08669334      11.97496892       0.01480417      -0.01365499      -0.00902100
H        7.42445202       9.14794508      11.59778759       0.01068491      -0.01289916       0.00725897
H        7.50731870       7.52609183      10.88440152       0.00850920      -0.00787017      -0.00470946
H       11.79207932      10.55346691      10.45573549      -0.00073687       0.00024555       0.00389319
H       12.74936562       8.34536863      10.80116002      -0.00350599      -0.00144587       0.00536024
H       11.43156295       8.57901318      11.96832467      -0.00547888       0.00091589       0.00265228
H       11.18932175       7.54596187      10.53591939      -0.00427119       0.00090412       0.00247343
H       11.02271077       8.57367447       8.24037971       0.00717024       0.00039578       0.00116672
H       11.14964731      10.33428069       8.02356551       0.00607486       0.00049387       0.00157876
H       12.58416630       9.38563771       8.46756457       0.00564242       0.00189017       0.00623983
H       10.31515678      12.01630600      11.86315471       0.01380038       0.01542624      -0.02586015
H        7.98101156      11.42904193      11.58639415       0.01464929      -0.00763570       0.02673081
H        9.19923213      12.44578581       9.73976329      -0.03340018      -0.00680407      -0.00447561
25
Lattice="20.0 0.0 0.0 0.0 20.0 0.0 0.0 0.0 20.0" Properties=species:S:1:pos:R:3:forces:R:3 mode=2 frequency_thz=-0.7351286738 interpolation_step=10 pbc="T T T"
C        7.86560301       9.38546106       8.89118648      -0.02774589       0.01494769       0.01613473
C        8.86357276       8.92787232       9.95597545       0.00117641       0.00245498      -0.01314051
C        8.12981434       8.37238441      11.17603788       0.03164090      -0.03131935      -0.00849538
N        9.79677357       9.99088009      10.31901135      -0.00259915       0.00506739      -0.01175834
C       11.21483220       9.68504165      10.10892819      -0.00013486       0.00224054       0.00644913
C       11.65514719       8.46528610      10.91158192      -0.01217528       0.00094723       0.01081752
C       11.51609100       9.48691847       8.62626574       0.01737069       0.00295938       0.00938200
Si       9.29071153      11.52858537      10.89528395      -0.00574250       0.00332452      -0.00952219
H        7.29805984       8.50872088       8.54897838      -0.00539750       0.00363244       0.00157092
H        8.42154397       9.77310548       8.01000956      -0.01485870       0.01352165       0.00440815
H        7.19069529      10.14501889       9.24311812      -0.01017903      -0.00175027       0.01422776
H        9.47509700       8.10875511       9.56400011       0.00055533       0.00501047      -0.01268463
H        8.79945821       8.08532785      11.97406682       0.01480417      -0.01365499      -0.00902100
H        7.42552051       9.14665516      11.59851348       0.01068491      -0.01289916       0.00725897
H        7.50816962       7.52530481      10.88393058       0.00850920      -0.00787017      -0.00470946
H       11.79200563      10.55349147      10.45612481      -0.00073687       0.00024555       0.00389319
H       12.74901502       8.34522404      10.80169605      -0.00350599      -0.00144587       0.00536024
H       11.43101506       8.57910477      11.96858990      -0.00547888       0.00091589       0.00265228