nqpoint: 1
phonon:
- q-position:
  - 0.0
  - 0.0
  - 0.0
  weight: 1
  band:
  - frequency: -0.09778964155120692
    eigenvector:
    - - - 0.03322661810014439
        - 0.0
      - - -0.09309831025038058
        - 0.0
      - - -0.02845352208926629
        - 0.0
    - - - 0.02154988139312064
        - 0.0
      - - -0.027552892259786337
        - 0.0
      - - 0.01745865652402947
        - 0.0
    - - - 0.007439980380947778
        - 0.0
      - - 0.014930683266162101
        - 0.0
      - - 0.03223983575883983
        - 0.0
    - - - -0.007596560952751034
        - 0.0
      - - 0.007757973397723499
        - 0.0
      - - -0.010029873670028956
        - 0.0
    - - - 0.0014439864152933756
        - 0.0
      - - 0.031893419789546885
        - 0.0
      - - 0.036535208214380915
        - 0.0
    - - - 0.00686625083472145
        - 0.0
      - - 0.07799710037471165
        - 0.0
      - - 0.09883043214556746
        - 0.0
    - - - 0.037669842510673374
        - 0.0
      - - -0.02554065468252901
        - 0.0
      - - 0.056658582059813
        - 0.0
    - - - -0.05094685485262206
        - 0.0
      - - 0.024151749301365415
        - 0.0
      - - -0.08985443737405796
        - 0.0
    - - - 0.05755256624742189
        - 0.0
      - - -0.12007842735201223
        - 0.0
      - - -0.002452510877705862
        - 0.0
    - - - 0.043380250799590354
        - 0.0
      - - -0.12435687786290882
        - 0.0
      - - -0.03983070795569499
        - 0.0
    - - - 0.008688395232720936
        - 0.0
      - - -0.08541249802047977
        - 0.0
      - - -0.07644659453462208
        - 0.0
    - - - 0.047956946747285595
        - 0.0
      - - -0.038779568688658395
        - 0.0
      - - 0.06532512750939384
        - 0.0
    - - - 0.0013429957263905363
        - 0.0
      - - 0.060627920235715844
        - 0.0
      - - 0.06856189016852984
        - 0.0
    - - - -0.019952951652025305
        - 0.0
      - - 0.02901489687565981
        - 0.0
      - - -0.014025845582388402
        - 0.0
    - - - 0.030966819900407037
        - 0.0
      - - -0.013627828132951597
        - 0.0
      - - 0.05393494054552645
        - 0.0
    - - - -0.02392612518823041
        - 0.0
      - - 0.060321993687923695
        - 0.0
      - - 0.009697625236313678
        - 0.0
    - - - 0.009698678827780416
        - 0.0
      - - 0.09967167265354152
        - 0.0
      - - 0.1288037019263774
        - 0.0
    - - - -0.018394036850491475
        - 0.0
      - - 0.11864401555608313
        - 0.0
      - - 0.08546153713312832
        - 0.0
    - - - 0.03362113505839075
        - 0.0
      - - 0.05112995953667034
        - 0.0
      - - 0.13063128676054253
        - 0.0
    - - - 0.06466185020442015
        - 0.0
      - - -0.053423935369271834
        - 0.0
      - - 0.08744750800285554
        - 0.0
    - - - 0.03434638109952349
        - 0.0
      - - -0.060107915390260475
        - 0.0
      - - 0.012358295446649787
        - 0.0
    - - - 0.041576776732675846
        - 0.0
      - - -0.005830239662252158
        - 0.0
      - - 0.08642064127968149
        - 0.0
    - - - -0.07571948122586052
        - 0.0
      - - 0.06900430060335984
        - 0.0
      - - -0.09752124942836904
        - 0.0
    - - - -0.07180932476212161
        - 0.0
      - - 0.05700295745159466
        - 0.0
      - - -0.10160083103756765
        - 0.0
    - - - -0.04227643928332312
        - 0.0
      - - -0.03867212025368885
        - 0.0
      - - -0.13761870437514745
        - 0.0
  - frequency: -0.08414706968435871
    eigenvector:
    - - - 0.06017764437978183
        - 0.0
      - - 0.042674070767989875
        - 0.0
      - - -0.1017084374341555
        - 0.0
    - - - 0.012239251110143784
        - 0.0
      - - 0.009821321289489366
        - 0.0
      - - -0.06541806712739978
        - 0.0
    - - - -0.048010910253602795
        - 0.0
      - - -0.021943467821990997
        - 0.0
      - - -0.11417954586548447
        - 0.0
    - - - -3.1718299205621214e-05
        - 0.0
      - - -0.005103504950960436
        - 0.0
      - - 0.008556628746918187
        - 0.0
    - - - 0.0027121862067134806
        - 0.0
      - - -0.009157748889718908
        - 0.0
      - - 0.06517861307069853
        - 0.0
    - - - -0.0435073732455192
        - 0.0
      - - -0.03550197856808757
        - 0.0
      - - 0.04693336947379084
        - 0.0
    - - - 0.06950377613118593
        - 0.0
      - - 0.030305585427745398
        - 0.0
      - - 0.07757751029319544
        - 0.0
    - - - -0.020036341495528624
        - 0.0
      - - -0.01924938692761195
        - 0.0
      - - 0.029227541851830935
        - 0.0
    - - - 0.07196338879806431
        - 0.0
      - - 0.05496983754865808
        - 0.0
      - - -0.15433808413623717
        - 0.0
    - - - 0.1037218167286727
        - 0.0
      - - 0.06600021523785682
        - 0.0
      - - -0.06711580224740168
        - 0.0
    - - - 0.04164083268713714
        - 0.0
      - - 0.032396929029616356
        - 0.0
      - - -0.11285599641402862
        - 0.0
    - - - 0.032582664564844044
        - 0.0
      - - 0.02156230692694506
        - 0.0
      - - -0.05900409955207402
        - 0.0
    - - - -0.08143572438707088
        - 0.0
      - - -0.04451952830439852
        - 0.0
      - - -0.09117438526196875
        - 0.0
    - - - -0.07141475158658364
        - 0.0
      - - -0.03547054250073362
        - 0.0
      - - -0.12107326447531129
        - 0.0
    - - - -0.03631019724529709
        - 0.0
      - - -0.00944781313480131
        - 0.0
      - - -0.16853943157331602
        - 0.0
    - - - -0.01078508374431118
        - 0.0
      - - -0.02260014189200924
        - 0.0
      - - 0.11669226204761254
        - 0.0
    - - - -0.044171182919441165
        - 0.0
      - - -0.04058786730362637
        - 0.0
      - - 0.09395933037523904
        - 0.0
    - - - -0.09161689974502109
        - 0.0
      - - -0.06369999729423143
        - 0.0
      - - 0.035740446785924994
        - 0.0
    - - - -0.02942017464716973
        - 0.0
      - - -0.02216923521617984
        - 0.0
      - - -0.000858556495291326
        - 0.0
    - - - 0.08396324940291573
        - 0.0
      - - 0.04408787092378219
        - 0.0
      - - 0.029358144252274627
        - 0.0
    - - - 0.10370491543468903
        - 0.0
      - - 0.04995484535019571
        - 0.0
      - - 0.08929513352618632
        - 0.0
    - - - 0.07121081321578077
        - 0.0
      - - 0.026510020864489846
        - 0.0
      - - 0.12459384887951479
        - 0.0
    - - - -0.038377071131327024
        - 0.0
      - - -0.03858373224568968
        - 0.0
      - - 0.10796653551771547
        - 0.0
    - - - -0.07579940794810473
        - 0.0
      - - -0.047160048568401794
        - 0.0
      - - -0.020691724230606015
        - 0.0
    - - - 0.03670033911015844
        - 0.0
      - - 0.015613686669244986
        - 0.0
      - - 0.019334707433865915
        - 0.0
  - frequency: -0.07162142444633104
    eigenvector:
    - - - 0.002164771395054255
        - 0.0
      - - 0.055986261348207
        - 0.0
      - - -0.006929656749387585
        - 0.0
    - - - -0.026235837931383264
        - 0.0
      - - 0.032078928086244775
        - 0.0
      - - 0.012321179488675928
        - 0.0
    - - - -0.06288142083313703
        - 0.0
      - - 0.08752571784300388
        - 0.0
      - - 0.021901558280325514
        - 0.0
    - - - 0.01625564870750493
        - 0.0
      - - 0.00043269383354066786
        - 0.0
      - - -0.004535490439721259
        - 0.0
    - - - 0.001972863815773526
        - 0.0
      - - -0.062365745749218396
        - 0.0
      - - 0.01392230206555234
        - 0.0
    - - - -0.05604405125733248
        - 0.0
      - - -0.057772896761223866
        - 0.0
      - - 0.04368162784735488
        - 0.0
    - - - 0.00223424572137396
        - 0.0
      - - -0.1126501339177375
        - 0.0
      - - 0.022544121731015533
        - 0.0
    - - - 0.07775828367617384
        - 0.0
      - - 0.03439406163677648
        - 0.0
      - - -0.04286329020792913
        - 0.0
    - - - -0.032293243329423356
        - 0.0
      - - 0.07397367307285296
        - 0.0
      - - 0.008253792032800576
        - 0.0
    - - - 0.02890263547251481
        - 0.0
      - - 0.01639407859912411
        - 0.0
      - - -0.014252867295447995
        - 0.0
    - - - 0.029908909606956698
        - 0.0
      - - 0.09596234273483653
        - 0.0
      - - -0.02863842889995038
        - 0.0
    - - - -0.05502500052382389
        - 0.0
      - - -0.00522466558446594
        - 0.0
      - - 0.03413831406952949
        - 0.0
    - - - -0.08641259159819409
        - 0.0
      - - 0.0703122133505283
        - 0.0
      - - 0.03724749485245753
        - 0.0
    - - - -0.03583619230603564
        - 0.0
      - - 0.1257123332765616
        - 0.0
      - - 0.001067589464907847
        - 0.0
    - - - -0.09489963728140985
        - 0.0
      - - 0.10892838366296399
        - 0.0
      - - 0.03498478606867644
        - 0.0
    - - - 0.03609247973196945
        - 0.0
      - - -0.07833397593598662
        - 0.0
      - - -0.0012553977645526648
        - 0.0
    - - - -0.06212136612572129
        - 0.0
      - - -0.1042746449076352
        - 0.0
      - - 0.05494695427169295
        - 0.0
    - - - -0.05774378469251923
        - 0.0
      - - -0.0205539953408003
        - 0.0
      - - 0.038121131957098243
        - 0.0
    - - - -0.09242313691652532
        - 0.0
      - - -0.04701770689253456
        - 0.0
      - - 0.060979479814783896
        - 0.0
    - - - -0.03350111180686059
        - 0.0
      - - -0.10125441617813669
        - 0.0
      - - 0.039289385105713136
        - 0.0
    - - - 0.043334501220222615
        - 0.0
      - - -0.11560865513634724
        - 0.0
      - - 0.0015114526971209462
        - 0.0
    - - - -0.003335756160868495
        - 0.0
      - - -0.1603346582511967
        - 0.0
      - - 0.033761665659337824
        - 0.0
    - - - 0.10599335739165511
        - 0.0
      - - -0.006625474788888278
        - 0.0
      - - -0.050353662085926364
        - 0.0
    - - - 0.06117260981148486
        - 0.0
      - - 0.10002689328060606
        - 0.0
      - - -0.045871433552352056
        - 0.0
    - - - 0.11828677614191725
        - 0.0
      - - 0.03754019573992211
        - 0.0
      - - -0.06469447719806948
        - 0.0
  - frequency: 0.0009494364315265209
    eigenvector:
    - - - 0.002379084392573715
        - 0.0
      - - 0.038845357747336606
        - 0.0
      - - -0.07696538077042298
        - 0.0
    - - - 0.0029546578211825394
        - 0.0
      - - 0.03867540250643358
        - 0.0
      - - -0.07768206947298235
        - 0.0
    - - - 0.0036735867446830535
        - 0.0
      - - 0.03869752872655852
        - 0.0
      - - -0.07729042619692907
        - 0.0
    - - - 0.003320324958822939
        - 0.0
      - - 0.03854999764443059
        - 0.0
      - - -0.07824727386737576
        - 0.0
    - - - 0.0032178938145978825
        - 0.0
      - - 0.03838989044507829
        - 0.0
      - - -0.07920303533297897
        - 0.0
    - - - 0.00364925527839264
        - 0.0
      - - 0.03831046700972913
        - 0.0
      - - -0.07949173570971907
        - 0.0
    - - - 0.002226263995739533
        - 0.0
      - - 0.03841045308328043
        - 0.0
      - - -0.07949268780360164
        - 0.0
    - - - 0.003881988759873926
        - 0.0
      - - 0.038570624435662317
        - 0.0
      - - -0.0778322662938597
        - 0.0
    - - - 0.002068666068912063
        - 0.0
      - - 0.038927875338244516
        - 0.0
      - - -0.0766240601791862
        - 0.0
    - - - 0.00186061839764425
        - 0.0
      - - 0.03884008411888019
        - 0.0
      - - -0.07723021618422413
        - 0.0
    - - - 0.0027583023533035078
        - 0.0
      - - 0.03889458398341305
        - 0.0
      - - -0.0764872564644491
        - 0.0
    - - - 0.0025317134726184666
        - 0.0
      - - 0.03862604232386491
        - 0.0
      - - -0.07810752296647154
        - 0.0
    - - - 0.004059360991009896
        - 0.0
      - - 0.03858158913861293
        - 0.0
      - - -0.07779579799926839
        - 0.0
    - - - 0.004125426579534094
        - 0.0
      - - 0.03873837087184883
        - 0.0
      - - -0.07687529017308634
        - 0.0
    - - - 0.0033701814957346147
        - 0.0
      - - 0.038786869867986844
        - 0.0
      - - -0.07689221689816171
        - 0.0
    - - - 0.0035657225276579676
        - 0.0
      - - 0.03830523975968388
        - 0.0
      - - -0.07954211128788814
        - 0.0
    - - - 0.0036317150559315903
        - 0.0
      - - 0.03817997243333932
        - 0.0
      - - -0.08022171860555616
        - 0.0
    - - - 0.004357795269326258
        - 0.0
      - - 0.0383022737791772
        - 0.0
      - - -0.079266485368705
        - 0.0
    - - - 0.003276778056194189
        - 0.0
      - - 0.038381683691854025
        - 0.0
      - - -0.07922593420487768
        - 0.0
    - - - 0.0018670841958344233
        - 0.0
      - - 0.03847363009598643
        - 0.0
      - - -0.0792107223265793
        - 0.0
    - - - 0.0018817511213016999
        - 0.0
      - - 0.03846332269450907
        - 0.0
      - - -0.07927607155025447
        - 0.0
    - - - 0.0021780157162306843
        - 0.0
      - - 0.03830191632327025
        - 0.0
      - - -0.08022417355374256
        - 0.0
    - - - 0.004275237547405793
        - 0.0
      - - 0.038416849176001744
        - 0.0
      - - -0.07860624626763717
        - 0.0
    - - - 0.004639019518436693
        - 0.0
      - - 0.038609175958735045
        - 0.0
      - - -0.07721046577357277
        - 0.0
    - - - 0.0032132452018666475
        - 0.0
      - - 0.03870213869857604
        - 0.0
      - - -0.07734897140586171
        - 0.0
  - frequency: 0.004049510818348145
    eigenvector:
    - - - 0.08685177074294133
        - 0.0
      - - -0.002589534955257324
        - 0.0
      - - 0.005617922975293043
        - 0.0
    - - - 0.08877597764715392
        - 0.0
      - - -0.0003888375785864598
        - 0.0
      - - 0.004604422557704884
        - 0.0
    - - - 0.09125338772861426
        - 0.0
      - - -0.0027287565728800383
        - 0.0
      - - 0.004695462183715863
        - 0.0
    - - - 0.08632802487420162
        - 0.0
      - - 0.0017930054361691248
        - 0.0
      - - 0.0045481936042364
        - 0.0
    - - - 0.08715391688613851
        - 0.0
      - - 0.005481704743514401
        - 0.0
      - - 0.003350165130182199
        - 0.0
    - - - 0.09084969626259921
        - 0.0
      - - 0.0058874316575813395
        - 0.0
      - - 0.002434206591437157
        - 0.0
    - - - 0.08676238748589722
        - 0.0
      - - 0.007347490589368511
        - 0.0
      - - 0.0029194615409900778
        - 0.0
    - - - 0.08279830460724175
        - 0.0
      - - 0.00021115630484400602
        - 0.0
      - - 0.005774518732593434
        - 0.0
    - - - 0.08882381114458998
        - 0.0
      - - -0.003927620542178557
        - 0.0
      - - 0.005539763786524188
        - 0.0
    - - - 0.08504893934590911
        - 0.0
      - - -0.0009343955208010254
        - 0.0
      - - 0.005573895937392107
        - 0.0
    - - - 0.08530901255899143
        - 0.0
      - - -0.004599782548327685
        - 0.0
      - - 0.006495314494252063
        - 0.0
    - - - 0.09037193971795104
        - 0.0
      - - 0.001434093093901141
        - 0.0
      - - 0.003765624281428425
        - 0.0
    - - - 0.09281755306667287
        - 0.0
      - - -0.0011665080438029796
        - 0.0
      - - 0.003944289032705349
        - 0.0
    - - - 0.0897698105096329
        - 0.0
      - - -0.004555906441753035
        - 0.0
      - - 0.005497711340607845
        - 0.0
    - - - 0.09308851304036714
        - 0.0
      - - -0.004269879428056879
        - 0.0
      - - 0.004709885840838587
        - 0.0
    - - - 0.08521247929142262
        - 0.0
      - - 0.006731618202449966
        - 0.0
      - - 0.003426963123620414
        - 0.0
    - - - 0.091210846872862
        - 0.0
      - - 0.008664187627397927
        - 0.0
      - - 0.0015850820928927122
        - 0.0
    - - - 0.09122347702009627
        - 0.0
      - - 0.004484502465214341
        - 0.0
      - - 0.0027410421151920694
        - 0.0
    - - - 0.09291418152228374
        - 0.0
      - - 0.004936824091900469
        - 0.0
      - - 0.0022490019021244555
        - 0.0
    - - - 0.08879156481147557
        - 0.0
      - - 0.006351594176177398
        - 0.0
      - - 0.0027516820376716055
        - 0.0
    - - - 0.08413714266594437
        - 0.0
      - - 0.007020476765900672
        - 0.0
      - - 0.003579871801093627
        - 0.0
    - - - 0.08708067152228084
        - 0.0
      - - 0.010157996300180874
        - 0.0
      - - 0.002075662547898096
        - 0.0
    - - - 0.08123837665787877
        - 0.0
      - - 0.0030533124045847657
        - 0.0
      - - 0.005266673660838465
        - 0.0
    - - - 0.08414736530892596
        - 0.0
      - - -0.002831007688819174
        - 0.0
      - - 0.006386110207032468
        - 0.0
    - - - 0.08002029312771264
        - 0.0
      - - -0.0008601804645288768
        - 0.0
      - - 0.006690731503363555
        - 0.0
  - frequency: 0.006409304523857216
    eigenvector:
    - - - 0.002270516513510996
        - 0.0
      - - -0.08358065534857147
        - 0.0
      - - -0.03527057237655544
        - 0.0
    - - - 0.0032495138421073802
        - 0.0
      - - -0.07945932260302761
        - 0.0
      - - -0.03427085540886328
        - 0.0
    - - - 0.004480149085527178
        - 0.0
      - - -0.07447004269654804
        - 0.0
      - - -0.030995704068876716
        - 0.0
    - - - 0.0035075960041362824
        - 0.0
      - - -0.07785635728213235
        - 0.0
      - - -0.03954286756415792
        - 0.0
    - - - 0.0034489547460584045
        - 0.0
      - - -0.07810561030424912
        - 0.0
      - - -0.039488094292256096
        - 0.0
    - - - 0.004406282818914096
        - 0.0
      - - -0.07452086302354562
        - 0.0
      - - -0.03486146697673815
        - 0.0
    - - - 0.00205476475872194
        - 0.0
      - - -0.08402235282217681
        - 0.0
      - - -0.03888205510215953
        - 0.0
    - - - 0.003935320728462125
        - 0.0
      - - -0.07550492200577874
        - 0.0
      - - -0.04541427438849891
        - 0.0
    - - - 0.0020081740762330456
        - 0.0
      - - -0.08501033744762333
        - 0.0
      - - -0.03112609658736736
        - 0.0
    - - - 0.0013846150758539432
        - 0.0
      - - -0.08721422021024774
        - 0.0
      - - -0.03764762822413493
        - 0.0
    - - - 0.002670339232957613
        - 0.0
      - - -0.08169484410485035
        - 0.0
      - - -0.03762427773242304
        - 0.0
    - - - 0.0028222040630007227
        - 0.0
      - - -0.08151607695837913
        - 0.0
      - - -0.03169328410698327
        - 0.0
    - - - 0.005164414217174744
        - 0.0
      - - -0.07163529660281302
        - 0.0
      - - -0.029936048423720298
        - 0.0
    - - - 0.004967020949685785
        - 0.0
      - - -0.07216097846491239
        - 0.0
      - - -0.033438834954782566
        - 0.0
    - - - 0.004234246063557314
        - 0.0
      - - -0.07588826966544916
        - 0.0
      - - -0.027030137685787624
        - 0.0
    - - - 0.0037342143920126372
        - 0.0
      - - -0.07650555475760698
        - 0.0
      - - -0.04359893812795353
        - 0.0
    - - - 0.004417647537548563
        - 0.0
      - - -0.07443216648877513
        - 0.0
      - - -0.03535503936661877
        - 0.0
    - - - 0.005425524370064861
        - 0.0
      - - -0.0702704038708392
        - 0.0
      - - -0.035116443304602146
        - 0.0
    - - - 0.00409030309977609
        - 0.0
      - - -0.07616504784767844
        - 0.0
      - - -0.0306214941354636
        - 0.0
    - - - 0.0017224340932109007
        - 0.0
      - - -0.08569524403281234
        - 0.0
      - - -0.03471070607320474
        - 0.0
    - - - 0.0013739879970774012
        - 0.0
      - - -0.08666994731532632
        - 0.0
      - - -0.0420979640796694
        - 0.0
    - - - 0.002014488391695246
        - 0.0
      - - -0.08415708999694627
        - 0.0
      - - -0.03937186665495224
        - 0.0
    - - - 0.004325332725298815
        - 0.0
      - - -0.07347710461715556
        - 0.0
      - - -0.04968756789892676
        - 0.0
    - - - 0.0051056535030721915
        - 0.0
      - - -0.07087474141080903
        - 0.0
      - - -0.0437197791564443
        - 0.0
    - - - 0.0027499752833168105
        - 0.0
      - - -0.08013153078329008
        - 0.0
      - - -0.04785321132766866
        - 0.0
  - frequency: 1.0414953903996453
    eigenvector:
    - - - 0.05845315575468857
        - 0.0
      - - -0.03646970199914042
        - 0.0
      - - -0.07919559692843144
        - 0.0
    - - - 0.00253022430273967
        - 0.0
      - - -0.003052334931088052
        - 0.0
      - - -0.0017732935828200906
        - 0.0
    - - - -0.058673168705430004
        - 0.0
      - - 0.0617533735156037
        - 0.0
      - - 0.0005757322437659608
        - 0.0
    - - - -0.0005544953527705038
        - 0.0
      - - 0.0034027085713758034
        - 0.0
      - - -0.009386377966331398
        - 0.0
    - - - 0.0001266391471191317
        - 0.0
      - - 0.013478725920072692
        - 0.0
      - - -0.03305280144244167
        - 0.0
    - - - 0.021889775681885548
        - 0.0
      - - 0.05172692499977651
        - 0.0
      - - 0.012712897884293292
        - 0.0
    - - - -0.031506925654000276
        - 0.0
      - - -0.04213846867273847
        - 0.0
      - - -0.03236079235685143
        - 0.0
    - - - 0.003188691316741367
        - 0.0
      - - -0.022388062529716313
        - 0.0
      - - 0.06455060476551895
        - 0.0
    - - - 0.03648702142956607
        - 0.0
      - - -0.037427170827585975
        - 0.0
      - - -0.037406844209945646
        - 0.0
    - - - 0.11326618911688074
        - 0.0
      - - -0.12190659583755623
        - 0.0
      - - -0.09698027616168277
        - 0.0
    - - - 0.07197362485621069
        - 0.0
      - - 0.02895887458450658
        - 0.0
      - - -0.16234551209232326
        - 0.0
    - - - 0.01486588626007326
        - 0.0
      - - -0.03517613482482688
        - 0.0
      - - 0.06199576558414611
        - 0.0
    - - - -0.08840834006390073
        - 0.0
      - - 0.09331278296837787
        - 0.0
      - - 0.05558992253570766
        - 0.0
    - - - -0.08373499804925526
        - 0.0
      - - 0.08984346404547959
        - 0.0
      - - -0.06104196849820039
        - 0.0
    - - - -0.04500252424998132
        - 0.0
      - - 0.04649421190840663
        - 0.0
      - - 0.00963660136515564
        - 0.0
    - - - 0.0029831198306619626
        - 0.0
      - - 0.03314973156451672
        - 0.0
      - - -0.0828585146042001
        - 0.0
    - - - 0.02102765042913119
        - 0.0
      - - 0.04641542674251872
        - 0.0
      - - -0.010067810145046431
        - 0.0
    - - - 0.04754614422051914
        - 0.0
      - - 0.10059875121569657
        - 0.0
      - - 0.014708223184059456
        - 0.0
    - - - 0.0034173447634578986
        - 0.0
      - - 0.03702585733757354
        - 0.0
      - - 0.0685776122716461
        - 0.0
    - - - -0.013468614974430826
        - 0.0
      - - -0.07448131616103347
        - 0.0
      - - 0.01941650690488779
        - 0.0
    - - - -0.07122037911678546
        - 0.0
      - - -0.07785127530561083
        - 0.0
      - - -0.06294468848094255
        - 0.0
    - - - -0.02870081341944993
        - 0.0
      - - -0.01294603764656162
        - 0.0
      - - -0.05262657788537523
        - 0.0
    - - - 0.04734065511834539
        - 0.0
      - - 0.08709438634603951
        - 0.0
      - - -0.2268990208291931
        - 0.0
    - - - 0.27940864715814845
        - 0.0
      - - -0.07653148013690875
        - 0.0
      - - 0.2805505946284251
        - 0.0
    - - - -0.30565577929077353
        - 0.0
      - - -0.09257412905679209
        - 0.0
      - - 0.2007920970640527
        - 0.0
  - frequency: 1.9584121242371086
    eigenvector:
    - - - -0.020014726318487653
        - 0.0
      - - 0.03331552809798369
        - 0.0
      - - -0.0014166836086765809
        - 0.0
    - - - -0.001374874168971926
        - 0.0
      - - 0.015733610579376795
        - 0.0
      - - -0.03070397664524811
        - 0.0
    - - - 0.023348335419259486
        - 0.0
      - - -0.01655453831438538
        - 0.0
      - - -0.034968877123223066
        - 0.0
    - - - 0.0014895666436121153
        - 0.0
      - - 0.015754305404606872
        - 0.0
      - - -0.036027845349634935
        - 0.0
    - - - 0.0013744569044439302
        - 0.0
      - - 0.013916323022742963
        - 0.0
      - - -0.041552656750366734
        - 0.0
    - - - 0.022312633647536786
        - 0.0
      - - 0.09214886683893508
        - 0.0
      - - 0.05938975665208724
        - 0.0
    - - - -0.019303600499967363
        - 0.0
      - - -0.1138792112277456
        - 0.0
      - - -0.02724509329473449
        - 0.0
    - - - -0.003797446584903251
        - 0.0
      - - -0.01618237501773198
        - 0.0
      - - 0.04655021882548331
        - 0.0
    - - - -0.025851609556281484
        - 0.0
      - - 0.039773538352997635
        - 0.0
      - - -0.00729229093654742
        - 0.0
    - - - -0.03530252803458318
        - 0.0
      - - 0.05053598934809373
        - 0.0
      - - 6.567310550565756e-05
        - 0.0
    - - - -0.011203960755474317
        - 0.0
      - - 0.02447414391751238
        - 0.0
      - - 0.025785825533591107
        - 0.0
    - - - -0.007755884193669326
        - 0.0
      - - 0.026670944808954978
        - 0.0
      - - -0.053978729003750406
        - 0.0
    - - - 0.036798659086828694
        - 0.0
      - - -0.007275330064243682
        - 0.0
      - - -0.04430009368748712
        - 0.0
    - - - 0.004984368882054258
        - 0.0
      - - -0.04171016256469481
        - 0.0
      - - -0.02253059278955529
        - 0.0
    - - - 0.042783083526128377
        - 0.0
      - - -0.029457222108479873
        - 0.0
      - - -0.0437476628239423
        - 0.0
    - - - 0.005229360169282015
        - 0.0
      - - 0.048800575270456184
        - 0.0
      - - -0.12757681976840235
        - 0.0
    - - - 0.023786428703092236
        - 0.0
      - - 0.10168320052847216
        - 0.0
      - - 0.06385141175788989
        - 0.0
    - - - 0.02926264588740361
        - 0.0
      - - 0.17472292168252174
        - 0.0
      - - 0.05082511047615222
        - 0.0
    - - - 0.027084459217524018
        - 0.0
      - - 0.05520797604328067
        - 0.0
      - - 0.13955766652918383
        - 0.0
    - - - 0.04662641185979119
        - 0.0
      - - -0.19580197788308248
        - 0.0
      - - 0.07957604599837813
        - 0.0
    - - - -0.09785567453030986
        - 0.0
      - - -0.20348935373337174
        - 0.0
      - - -0.11273699232832962
        - 0.0
    - - - -0.009541132177150927
        - 0.0
      - - -0.035224812373568004
        - 0.0
      - - -0.03675882728543116
        - 0.0
    - - - -0.037473627585804116
        - 0.0
      - - -0.14319527806039428
        - 0.0
      - - 0.3387518777215978
        - 0.0
    - - - -0.21955710272276543
        - 0.0
      - - -0.05932321945149447
        - 0.0
      - - -0.1366183537654288
        - 0.0
    - - - 0.23805357772882949
        - 0.0
      - - 0.12955891221079627
        - 0.0
      - - 0.0018086186219956465
        - 0.0
  - frequency: 2.0878592874130595
    eigenvector:
    - - - -0.07094551891189102
        - 0.0
      - - 0.05662783164776014
        - 0.0
      - - 0.04791333544976386
        - 0.0
    - - - -0.005680880846804808
        - 0.0
      - - 0.018379630923226427
        - 0.0
      - - -0.04156979630579364
        - 0.0
    - - - 0.06717167162110653
        - 0.0
      - - -0.06404778226647351
        - 0.0
      - - -0.047361622037415785
        - 0.0
    - - - -0.0031335982050035498
        - 0.0
      - - 0.012700281434118603
        - 0.0
      - - -0.03508107047405864
        - 0.0
    - - - -0.003455683891906831
        - 0.0
      - - -0.003337546136350427
        - 0.0
      - - 0.010393117968211676
        - 0.0
    - - - -0.027298313147616885
        - 0.0
      - - 0.020457802950244346
        - 0.0
      - - 0.0524280777653854
        - 0.0
    - - - 0.03889853765926335
        - 0.0
      - - -0.049068200664246574
        - 0.0
      - - 0.029686261640977714
        - 0.0
    - - - 0.001101824808853266
        - 0.0
      - - 0.005803277391863506
        - 0.0
      - - -0.01264757211528915
        - 0.0
    - - - -0.056772086442257376
        - 0.0
      - - 0.06112209760631275
        - 0.0
      - - 0.011354277517125116
        - 0.0
    - - - -0.13158337752497304
        - 0.0
      - - 0.14104205818999896
        - 0.0
      - - 0.06204587052469511
        - 0.0
    - - - -0.0748186468607015
        - 0.0
      - - -0.004533136715468589
        - 0.0
      - - 0.1373897532071164
        - 0.0
    - - - -0.01855948313897181
        - 0.0
      - - 0.05740226467237133
        - 0.0
      - - -0.1157349592536177
        - 0.0
    - - - 0.09909183661626252
        - 0.0
      - - -0.13605646774800442
        - 0.0
      - - -0.1313409692045523
        - 0.0
    - - - 0.12537108045389259
        - 0.0
      - - -0.0926130760502972
        - 0.0
      - - 0.05000210443079407
        - 0.0
    - - - 0.02423349515333237
        - 0.0
      - - -0.020984722073983823
        - 0.0
      - - -0.06439433815843386
        - 0.0
    - - - -0.008356480616167396
        - 0.0
      - - 0.005437612045108208
        - 0.0
      - - -0.0025049310038035015
        - 0.0
    - - - -0.02502159439298527
        - 0.0
      - - 0.035221444972121325
        - 0.0
      - - 0.1037930783095979
        - 0.0
    - - - -0.07221983099701956
        - 0.0
      - - 0.0355504168128501
        - 0.0
      - - 0.03618778628930295
        - 0.0
    - - - 0.005919749914152062
        - 0.0
      - - 0.00571825666817697
        - 0.0