85
Lattice="7.6805938572482795 0.0 0.0 2.2113655152797997e-16 11.52089078587242 0.0 0.0 0.0 30.78875" Properties=species:S:1:pos:R:3:tags:I:1:forces:R:3:energies:R:1 energy=-400.6548767089844 stress="-0.0009827297180891037 4.362172603578074e-06 -2.0969273464288563e-06 4.362172603578074e-06 -0.00010283161827828735 2.122336127285962e-06 -2.0969273464288563e-06 2.122336127285962e-06 3.229223148082383e-05" free_energy=-400.6548767089844 pbc="T T F"
H        1.11276512       1.94743675       9.16355180        0      -0.00728400       0.00077575       0.00638688      -3.08713245
H        4.95804655       9.57710932       9.15027760        0       0.00121027      -0.00425142       0.00181786      -3.07638645
H        6.56104063       5.76059807       9.15460969        0      -0.00308485       0.00083886       0.00111984      -3.08889580
H        2.72257126       5.75888972       9.15289935        0      -0.00422256       0.00064944      -0.00022082      -3.08959651
H        1.10839140       9.58393380       9.16396831        0      -0.00307560      -0.00140593       0.00504375      -3.07936263
H        4.95307763       1.94795684       9.15002878        0       0.00091292       0.00648626       0.00076018      -3.08296680
H        4.95905620       5.75933298       9.15110748        0       0.00245327       0.00060719      -0.00099024      -3.08925843
H        1.11699992       5.75718996       9.15732808        0       0.00346774      -0.00121054       0.00156442      -3.08969069
H        6.55703887       1.91088715       9.15789148        0       0.00437972      -0.00259968       0.00295859      -3.08546448
H        6.55730692       9.59870800       9.15027916        0      -0.00333315      -0.00146295      -0.00030689      -3.08658314
H        2.71533995       1.95625979       9.14053839        0      -0.00417641       0.00684136       0.00124336      -3.10000682
H        2.71883807       9.56756736       9.15396133        0      -0.00393695      -0.00432443       0.00163517      -3.09198999
H        6.56233901      -0.00004544       0.35122589        0      -0.00309651      -0.00008141       0.00338691      -3.08959913
H        2.72188957       7.68176129       0.35175610        0      -0.00266548       0.00165426       0.00243233      -3.08960271
H        1.11858847       3.83980182       0.35136875        0       0.00261505      -0.00125818       0.00221391      -3.08963251
H        2.72210425      -0.00015710       0.35124506        0      -0.00313799      -0.00013701       0.00332589      -3.08960629
H        6.56218176       7.68161246       0.35151673        0      -0.00280009       0.00184693       0.00206883      -3.08966064
H        4.95873974       3.84010186       0.35130447        0       0.00255063      -0.00118969       0.00273896      -3.08970690
H        4.95868028       0.00006756       0.35094401        0       0.00293811       0.00005492       0.00382230      -3.08961344
H        4.95873245       7.68126641       0.35139222        0       0.00264984       0.00142436       0.00273061      -3.08966517
H        1.11835521      -0.00002321       0.35098818        0       0.00335449      -0.00009036       0.00293705      -3.08964586
H        1.11861571       7.68169079       0.35145735        0       0.00276735       0.00160041       0.00200780      -3.08962870
H        6.56214265       3.83985392       0.35151376        0      -0.00264896      -0.00150175       0.00213977      -3.08968568
H        2.72186658       3.83987903       0.35141868        0      -0.00258888      -0.00123949       0.00255052      -3.08964539
Si       0.00016109       0.00001925       1.31840170        3       0.00016122       0.00000357       0.00709874      -5.48329067
Si       0.00031038       1.91908968       2.66809972        3      -0.00172083       0.00038708       0.00184250      -5.47476196
Si       1.92014702       1.91882975       4.05806186        2       0.00015070       0.00156947      -0.00049189      -5.41216850
Si       1.92194481       0.00012597       5.45297356        2       0.00092934       0.00012525       0.00547200      -5.41462421
Si       0.00515889       0.00016011       6.84646929        1      -0.00060539      -0.00117221      -0.00020221      -5.47847271
Si      -0.00395581       1.91957341       8.19124785        1      -0.00164437       0.00046518      -0.01280767      -5.47753716
Si       0.00012559       3.83959126       1.31845470        3      -0.00016538      -0.00010194       0.00684065      -5.48236179
Si       0.00006955       5.76096011       2.66541787        3      -0.00103390      -0.00014943       0.00391971      -5.47534752
Si       1.91927316       5.76113912       4.05504336        2      -0.00049951      -0.00074373       0.00117938      -5.41176367
Si       1.91714796       3.84049893       5.44663301        2      -0.00014627       0.00184288       0.00241330      -5.41290617
Si      -0.00184109       3.83994085       6.83800290        1      -0.00005109       0.00230893      -0.00131188      -5.47330284
Si      -0.00041652       5.75977496       8.18770548        1       0.00011614       0.00032955      -0.00370561      -5.48802042
Si       0.00012435       7.68201169       1.31849611        3      -0.00010456       0.00045880       0.00668391      -5.48260689
Si       0.00036003       9.60211286       2.66881731        3      -0.00101288       0.00014785       0.00200528      -5.47460413
Si       1.92044640       9.60238796       4.05843970        2       0.00047968      -0.00049284      -0.00078584      -5.41214848
Si       1.91944506       7.68124516       5.44748380        2      -0.00067024      -0.00180045       0.00167184      -5.41299105
Si       0.00023130       7.67821493       6.83527141        1       0.00027312      -0.00019991       0.00109273      -5.47145081
Si      -0.00245668       9.59878454       8.18532184        1      -0.00170313      -0.00003020      -0.00753579      -5.48852491
Si       3.84049742       0.00004066       1.31843974        3      -0.00015737       0.00017261       0.00755199      -5.48313904
Si       3.84033049       1.91930714       2.66824262        3       0.00144630       0.00044587       0.00147259      -5.47474527
Si       5.76075603       1.91810049       4.05831825        2      -0.00035689       0.00107050       0.00069167      -5.41193056
Si       5.76083318       0.00016520       5.45712239        2      -0.00019405       0.00062358       0.00407195      -5.41365719
Si       3.83820069      -0.00081715       6.85118346        1       0.00112227      -0.00071981       0.00490078      -5.48221636
Si       3.83844172       1.92836072       8.18037321        1      -0.00094088       0.00143356      -0.00287331      -5.49816322
Si       3.84034387       3.83975335       1.31848800        3       0.00000942      -0.00019963       0.00722886      -5.48254013
Si       3.84005057       5.76082621       2.66599732        3       0.00050019      -0.00013742       0.00389382      -5.47479296
Si       5.76097303       5.76154943       4.05458049        2      -0.00001470      -0.00080132       0.00036396      -5.41187429
Si       5.76137443       3.84099911       5.44524845        2      -0.00020419       0.00176786       0.00134347      -5.41348171
Si       3.83954373       3.84479463       6.82878115        1      -0.00042338      -0.00130970       0.00081629      -5.47411776
Si       3.84020413       5.76103912       8.18360372        1      -0.00094436      -0.00095361      -0.00547079      -5.48730135
Si       3.84045262       7.68185671       1.31872577        3      -0.00001833       0.00037421       0.00716446      -5.48256922
Si       3.84072090       9.60205814       2.66898408        3       0.00143134       0.00007619       0.00129029      -5.47461414
Si       5.76104698       9.60312912       4.05928129        2      -0.00004615       0.00031751       0.00019325      -5.41199207
Si       5.76103622       7.68123551       5.44750173        2       0.00106091      -0.00196841       0.00058961      -5.41336823
Si       3.84007120       7.68026252       6.83275777        1       0.00009504      -0.00043012       0.00088771      -5.47222757
Si       3.83667771       9.59553432       8.18727936        1      -0.00070854      -0.00178874      -0.00332078      -5.50729465
C       -0.00481217       0.01639825      11.99795760        0      -0.00040605      -0.00218169       0.01647054      -9.12821007
C        0.94048738      -0.43416688      13.12825942        0      -0.01532501      -0.02095848      -0.01434694      -9.40723705
C        0.14164121      -0.94071783      14.34119934        0       0.00654918       0.00681210      -0.01541271      -9.02268887
N        1.89425902       0.61361409      13.50299044        0      -0.01643726      -0.00351664      -0.02623725      -7.73685360
C        3.29650862       0.33794823      13.22800121        0       0.01856327      -0.01411536      -0.01002691      -9.37553883
C        3.83524434      -0.87472167      14.02404872        0       0.00149292       0.00365267       0.00692566      -8.99745750
C        3.60628714       0.13069729      11.72104438        0       0.00463960       0.00825134      -0.00507453      -9.09573078
Si       1.39387372       2.24084379      14.03805117        0      -0.00990991       0.00080833      -0.01135539      -6.41662073
H       -0.61448806      -0.84657884      11.69508828        0       0.00134715       0.01931278       0.00443964      -3.69943953
H        0.54323964       0.37360570      11.11349874        0      -0.00994801      -0.01138278       0.01861899      -3.68752766
H       -0.67394754       0.82276665      12.33826090        0       0.01416320      -0.00025052       0.01067355      -3.68639278
H        1.50888827      -1.30366700      12.74091030        0      -0.01010792       0.00378689      -0.01014049      -3.54759216
H        0.80022333      -1.26375001      15.16122008        0      -0.00048166      -0.00575330      -0.03185643      -3.71820998
H       -0.53233473      -0.16210881      14.72783577        0       0.01598715      -0.00555069      -0.00352574      -3.70918918
H       -0.46424379      -1.80424025      14.02780775        0       0.01201130       0.01177851       0.02085064      -3.73023510
H        3.84014491       1.24090657      13.56353945        0      -0.00105969      -0.00297767      -0.01187219      -3.54764843
H        4.91934378      -0.95456541      13.86649742        0      -0.00676264      -0.00387789       0.01281227      -3.72290158
H        3.63888579      -0.76049766      15.09845717        0       0.01372978      -0.01628383       0.00941547      -3.71697783
H        3.38038138      -1.81512272      13.67985146        0       0.01787269       0.00736105      -0.00418827      -3.72829461
H        3.13146239      -0.77972166      11.32920961        0       0.01498722       0.00519983      -0.00042361      -3.70526433
H        3.26972886       0.98850010      11.12445330        0       0.00456153      -0.00550784      -0.03097543      -3.68786097
H        4.69016862       0.02244550      11.59095629        0      -0.00166091      -0.00408191      -0.00721611      -3.71694660
H        2.33497518       2.69134989      15.10419323        0      -0.00037149       0.01371668       0.01142994      -3.09553957
H        0.00948735       2.18395075      14.60584379        0      -0.03683484      -0.01525024       0.00637318      -3.08055592
H        1.42140601       3.22030666      12.91822488        0       0.00574334       0.02806026      -0.03289998      -3.07407641
