65
Lattice="7.6805938572482795 0.0 0.0 1.4742436768531998e-16 7.6805938572482795 0.0 0.0 0.0 30.78875" Properties=species:S:1:pos:R:3:tags:I:1:forces:R:3:energies:R:1 energy=-310.5015563964844 stress="-0.001089124707505107 -2.414525624772068e-06 -4.098963472642936e-06 -2.414525624772068e-06 -9.029063221532851e-05 6.162490990391234e-06 -4.098963472642936e-06 6.162490990391234e-06 -1.8089736840920523e-05" free_energy=-310.5015563964844 pbc="T T F"
Si      -0.00130332       0.00411002       0.51424697        3      -0.00149916       0.00160962       0.03198257      -5.48392677
Si      -0.00323939       1.92134765       1.86377358        3      -0.00420609       0.01350315       0.00159758      -5.47475100
Si       1.91598546       1.92460708       3.25179660        2       0.00206175      -0.01592838       0.00848611      -5.41166687
Si       1.92122723       0.00408855       4.64764754        2       0.01012316       0.00023362      -0.04009181      -5.41665268
Si       0.00264054      -0.00353476       6.02537603        1      -0.00195100       0.00353330       0.01862659      -5.47855520
Si      -0.02027882       1.90689945       7.37175923        1      -0.01071114       0.00412883      -0.06305693      -5.47754765
Si      -0.00148752       3.84389372       0.51855084        3      -0.00093888       0.00100153       0.02753828      -5.48129702
Si      -0.00292784       5.76723567       1.86320104        3      -0.00408826      -0.01052588      -0.00278254      -5.47486544
Si       1.91535562       5.76605819       3.25047159        2       0.00377117       0.01739677       0.00821038      -5.41241264
Si       1.90328182       3.84686614       4.63792223        2       0.00709957       0.00068599      -0.00560935      -5.41475153
Si      -0.01297084       3.83869332       6.03299558        1       0.00996289       0.00782438      -0.01021992      -5.47231531
Si      -0.02682738       5.76586728       7.37271884        1      -0.00912358       0.00755645      -0.05735860      -5.48557854
Si       3.84003617       0.00367667       0.51474747        3      -0.00209238       0.00285516       0.03425305      -5.48303938
Si       3.83784102       1.92184494       1.86407719        3      -0.00092620       0.01864627      -0.00193684      -5.47465277
Si       5.75760497       1.92455230       3.25313394        2      -0.00380667      -0.02414303       0.00080235      -5.41169500
Si       5.75602638       0.00404092       4.65124020        2      -0.01321247       0.00152485      -0.03827693      -5.41515112
Si       3.83588950       0.01027128       6.04754151        1      -0.00196823      -0.00599084       0.02113289      -5.48559332
Si       3.82337718       1.95188088       7.35585855        1       0.00966973      -0.01778257      -0.02571354      -5.49830580
Si       3.84048019       3.84450228       0.51709533        3      -0.00224779      -0.00033249       0.03143881      -5.48194742
Si       3.83813671       5.76686472       1.86504300        3      -0.00065829      -0.01569489      -0.00997297      -5.47402382
Si       5.75886144       5.76635319       3.25195385        2      -0.00590370       0.02621350       0.00065234      -5.41258621
Si       5.75670174       3.84724522       4.63581946        2      -0.00250564       0.00064582      -0.00421907      -5.41669369
Si       3.83011434       3.85938941       6.00333839        1      -0.00463954      -0.00469912       0.00022703      -5.46992636
Si       3.81504010       5.76105233       7.37466806        1       0.00324029       0.00873542      -0.03938723      -5.51542282
H        1.08358078       1.91907928       8.35486895        0       0.03915907       0.00610750       0.04769794      -3.08751225
H        4.91307494       5.71791723       8.36242661        0       0.03922398       0.00546747       0.01812348      -3.07950950
H        4.92605002       1.99433244       8.33676792        0       0.04281095      -0.00275640       0.01786786      -3.08591223
H        1.06590404       5.75786968       8.36907203        0       0.03505373      -0.00446393       0.04210332      -3.08008671
H        6.52841597       1.87311172       8.31950300        0      -0.01376976       0.00368777       0.04510444      -3.08474994
H        6.51621548       5.79493037       8.31176707        0      -0.02986459      -0.00939653       0.03597481      -3.08262110
H        2.70169419       1.98538397       8.31318947        0      -0.05730158       0.00820702       0.01491206      -3.10607481
H        2.68328183       5.72228225       8.32095700        0      -0.04027478       0.00486012       0.02485615      -3.08581305
H        6.56390332       0.00425950      -0.45350284        0      -0.02968971      -0.00020694      -0.01704851      -3.09010792
H        2.72330671       3.84442469      -0.44944548        0      -0.02569634       0.00083712      -0.01202308      -3.08961964
H        2.72354341       0.00385099      -0.45179707        0      -0.03000677      -0.00088507      -0.01518885      -3.08983898
H        6.56389684       3.84367207      -0.44987699        0      -0.02750088       0.00026533      -0.01544423      -3.08960080
H        4.95620053       0.00422733      -0.45233440        0       0.02885459      -0.00077252      -0.01141339      -3.08965588
H        4.95694232       3.84393341      -0.45045268        0       0.02374932       0.00082025      -0.00818678      -3.08936834
H        1.11699669       0.00504518      -0.45013335        0       0.02799335      -0.00054913      -0.01547790      -3.08968997
H        1.11716099       3.84301211      -0.44581417        0       0.02696835       0.00051122      -0.01470955      -3.08924842
C       -0.12130224       0.03830115      11.18816869        0      -0.02980735       0.02539058       0.00204521      -9.13312244
C        0.98370057      -0.45779747      12.12863383        0      -0.00026153      -0.05230582      -0.01156229      -9.40742970
C        0.40076893      -1.22729662      13.32999015        0      -0.00432864       0.01636136       0.04820289      -9.05392265
N        1.87206221       0.64780820      12.52539499        0      -0.01273939      -0.11627284       0.02174258      -7.74443531
C        3.30190093       0.43336227      12.30442432        0      -0.05874801      -0.01831019       0.03299335      -9.38224125
C        3.87169441      -0.74036572      13.13201398        0       0.01791924       0.03102564      -0.00521523      -9.01967335
C        3.65416920       0.21471151      10.81162199        0       0.02673521       0.02202191      -0.00012744      -9.09843063
Si       1.25932589       2.19779775      13.09513571        0       0.00003534       0.09326863      -0.00664157      -6.37679148
H       -0.76408591      -0.80637198      10.91278983        0       0.02073303      -0.05395941      -0.00689635      -3.69428420
H        0.28221628       0.47534791      10.26262836        0       0.00751547       0.02072847       0.01122142      -3.67077279
H       -0.74247777       0.79764337      11.68362592        0      -0.09097254       0.00818933      -0.00524945      -3.67728090
H        1.57831271      -1.19993513      11.56712259        0       0.05914249      -0.05474630      -0.05191892      -3.55205870
H        1.19239972      -1.61710105      13.98486406        0      -0.00590224       0.02806109      -0.00946419      -3.72010207
H       -0.26849399      -0.58996532      13.92616710        0       0.02192313       0.01155899       0.02530210      -3.71141243
H       -0.17485499      -2.08869030      12.96313784        0      -0.02001723       0.00361599      -0.05398060      -3.71679163
H        3.80037742       1.36310757      12.64288286        0      -0.06391308      -0.03031489      -0.02906505      -3.55164981
H        4.96478700      -0.74970400      13.01394762        0       0.00157329      -0.04041426       0.01055387      -3.71552300
H        3.63703187      -0.63067923      14.20009117        0      -0.00799811      -0.01290088      -0.02804088      -3.72075129
H        3.48986550      -1.71159917      12.77877883        0       0.01659762       0.06616808       0.01000913      -3.72443295
H        3.25036456      -0.73233047      10.42480433        0       0.04668895       0.03264095       0.02106847      -3.69353080
H        3.27984681       1.03342613      10.18428940        0       0.00829834       0.01471119       0.00917364      -3.67850137
H        4.74398098       0.17374673      10.71866778        0       0.01754975      -0.00466599      -0.07409473      -3.71509576
H        2.12216200       2.67365748      14.22573563        0      -0.01838651       0.02082851      -0.01610188      -3.11257792
H       -0.15613213       2.03309248      13.58089517        0       0.05393033      -0.00463148       0.04639285      -3.10829067
H        1.26724654       3.22914308      12.00514069        0       0.02927414      -0.03877915       0.03618302      -3.08969355
