65
Lattice="7.6805938572482795 0.0 0.0 1.4742436768531998e-16 7.6805938572482795 0.0 0.0 0.0 30.78875" Properties=species:S:1:pos:R:3:tags:I:1:forces:R:3:energies:R:1 energy=-310.5014953613281 stress="-0.0010896815219894052 -2.276111672472325e-06 -3.992100573668722e-06 -2.276111672472325e-06 -9.034210233949125e-05 6.133129318186548e-06 -3.992100573668722e-06 6.133129318186548e-06 -1.8497350538382307e-05" free_energy=-310.5014953613281 pbc="T T F"
Si      -0.00129966       0.00410506       0.51417786        3      -0.00151319       0.00158119       0.03236318      -5.48391914
Si       5.75671113       3.84723316       4.63575932        2      -0.00248834       0.00068399      -0.00426745      -5.41669559
Si       5.75887222       5.76634017       3.25187512        2      -0.00592182       0.02626847       0.00079434      -5.41258383
Si       3.83814278       5.76686104       1.86496891        3      -0.00062746      -0.01574837      -0.00999795      -5.47402334
Si       3.84048167       3.84449446       0.51701972        3      -0.00224540      -0.00031038       0.03181560      -5.48194075
Si       3.82340099       1.95184769       7.35579688        1       0.00975091      -0.01794652      -0.02623113      -5.49828720
Si       3.83589715       0.01026033       6.04743237        1      -0.00198059      -0.00603190       0.02138534      -5.48558044
Si       5.75604456       0.00403411       4.65118284        2      -0.01327156       0.00153224      -0.03857997      -5.41515827
Si       5.75761332       1.92455120       3.25305402        2      -0.00381410      -0.02424105       0.00092807      -5.41169500
Si       3.83784658       1.92183562       1.86400144        3      -0.00092497       0.01866398      -0.00194459      -5.47465372
Si       3.84003708       0.00366834       0.51467247        3      -0.00209147       0.00287419       0.03467188      -5.48303795
Si      -0.02678639       5.76585314       7.37266086        1      -0.00922657       0.00766870      -0.05813269      -5.48557997
Si      -0.01295795       3.83868361       6.03293310        1       0.00998402       0.00786221      -0.01027681      -5.47230959
Si       1.90329816       3.84685470       4.63786664        2       0.00710331       0.00070832      -0.00572118      -5.41474724
Si       1.91536296       5.76604717       3.25038850        2       0.00374715       0.01743272       0.00843370      -5.41241264
Si      -0.00292062       5.76722917       1.86312547        3      -0.00408821      -0.01055912      -0.00279447      -5.47486591
Si      -0.00148275       3.84388581       0.51847546        3      -0.00092135       0.00101400       0.02793108      -5.48129034
Si      -0.02024989       1.90691540       7.37172108        1      -0.01091118       0.00399340      -0.06385916      -5.47755527
Si       0.00263805      -0.00352989       6.02531279        1      -0.00190815       0.00352335       0.01889056      -5.47855425
Si       1.92121785       0.00408080       4.64759719        2       0.01017785       0.00023855      -0.04044345      -5.41665602
Si       1.91598815       1.92460123       3.25171421        2       0.00208744      -0.01598055       0.00867516      -5.41166782
Si      -0.00323314       1.92133917       1.86370006        3      -0.00421941       0.01355761       0.00156656      -5.47475147
Si       3.83013129       3.85937395       6.00329407        1      -0.00466787      -0.00472530       0.00019063      -5.46992826
Si       3.81507632       5.76105011       7.37459860        1       0.00326541       0.00887239      -0.03996229      -5.51540470
H        2.70175651       1.98530148       8.31312995        0      -0.05773966       0.00824022       0.01522911      -3.10606670
H        6.51629907       5.79489926       8.31171901        0      -0.03026210      -0.00939230       0.03628106      -3.08263016
H        2.68336138       5.72230993       8.32089770        0      -0.04066868       0.00484487       0.02515560      -3.08582568
H        6.52844959       1.87316085       8.31943295        0      -0.01400590       0.00365741       0.04541540      -3.08474994
H        4.91312289       5.71796757       8.36230662        0       0.03957665       0.00543981       0.01839726      -3.07950783
H        4.92606683       1.99423462       8.33668008        0       0.04315390      -0.00270599       0.01810320      -3.08590245
H        1.06595872       5.75786340       8.36894183        0       0.03551212      -0.00448054       0.04251149      -3.08009458
H        1.08362802       1.91909721       8.35475107        0       0.03956912       0.00611157       0.04816420      -3.08752012
H        6.56392069       0.00425220      -0.45355781        0      -0.02997088      -0.00020560      -0.01724914      -3.09010983
H        2.72332270       3.84441858      -0.44951184        0      -0.02594562       0.00083676      -0.01219714      -3.08962250
H        2.72355648       0.00384305      -0.45185621        0      -0.03028029      -0.00088749      -0.01539561      -3.08984137
H        6.56391471       3.84367084      -0.44993814        0      -0.02779301       0.00025701      -0.01564632      -3.08960199
H        4.95618731       0.00422182      -0.45239434        0       0.02914310      -0.00077548      -0.01163371      -3.08966017
H        4.95693115       3.84392865      -0.45051646        0       0.02400346       0.00081497      -0.00837066      -3.08937120
H        1.11698164       0.00503874      -0.45019310        0       0.02828366      -0.00054241      -0.01568691      -3.08969259
H        1.11714701       3.84300684      -0.44588403        0       0.02724110       0.00050528      -0.01489130      -3.08924985
C       -0.12107976       0.03824347      11.18810048        0      -0.03032004       0.02558183       0.00154855      -9.13316441
C        0.98362243      -0.45777644      12.12886466        0       0.00017948      -0.05088049      -0.01141991      -9.40749359
C        0.40038419      -1.22686726      13.33021158        0      -0.00477009       0.01416455       0.04732378      -9.05401134
N        1.87206097       0.64780110      12.52558103        0      -0.01170728      -0.11706787       0.02149670      -7.74431801
C        3.30188992       0.43322958      12.30453772        0      -0.05910164      -0.01864532       0.03329486      -9.38220119
C        3.87161804      -0.74058314      13.13206620        0       0.01759074       0.03139653      -0.00497547      -9.01966763
C        3.65405558       0.21457734      10.81173329        0       0.02660277       0.02239255      -0.00021518      -9.09846401
Si       1.25954957       2.19782674      13.09529907        0      -0.00034819       0.09540875      -0.00722268      -6.37688351
H       -0.76385323      -0.80638720      10.91265496        0       0.02034779      -0.05457491      -0.00695686      -3.69427538
H        0.28260642       0.47519519      10.26262385        0       0.00810899       0.02092586       0.01050788      -3.67077827
H       -0.74227512       0.79765141      11.68333129        0      -0.09191145       0.00931879      -0.00458104      -3.67729187
H        1.57818452      -1.20007971      11.56766948        0       0.06072855      -0.05614038      -0.05307370      -3.55207086
H        1.19175215      -1.61656141      13.98537054        0      -0.00430536       0.02727549      -0.00846183      -3.72007751
H       -0.26889444      -0.58935135      13.92600100        0       0.02007928       0.01319876       0.02699441      -3.71141362
H       -0.17525583      -2.08831246      12.96349440        0      -0.01992604       0.00361429      -0.05415081      -3.71676040
H        3.80049225       1.36290524      12.64301853        0      -0.06411855      -0.03034034      -0.02919537      -3.55165410
H        4.96469455      -0.74999604      13.01392557        0       0.00181089      -0.04048822       0.01056384      -3.71552873
H        3.63703407      -0.63081563      14.20015557        0      -0.00793753      -0.01318465      -0.02809462      -3.72073913
H        3.48969144      -1.71179263      12.77886446        0       0.01654384       0.06631093       0.01008208      -3.72443390
H        3.25013871      -0.73239745      10.42487893        0       0.04658265       0.03256459       0.02109701      -3.69354677
H        3.27978361       1.03338482      10.18449727        0       0.00836676       0.01468342       0.00877624      -3.67851305
H        4.74385421       0.17351490      10.71874337        0       0.01787863      -0.00469523      -0.07418816      -3.71509552
H        2.12255534       2.67365044      14.22579449        0      -0.01849540       0.02079921      -0.01613739      -3.11253285
H       -0.15589000       2.03337039      13.58112762        0       0.05355645      -0.00491217       0.04657497      -3.10825348
H        1.26744416       3.22918752      12.00524077        0       0.02945396      -0.03935618       0.03679118      -3.08960104
