277
Lattice="14.863742776096284 0.0 0.0 2.4e-15 14.863742776096284 0.0 0.0 0.0 44.62268496864509" Properties=species:S:1:pos:R:3:move_mask:L:1:momenta:R:3:tags:I:1 mechanism="Physisorption, center=com, tag=2" candidate_id=1 energy=-1979.5234375 E_ads_eV=-1.8299560546875 pbc="T T T"
Si       2.47729046       0.00000000      19.56958905  F       0.00000000       0.00000000       0.00000000        0
Si       2.47729046       2.47729046      17.74175343  F       0.00000000       0.00000000       0.00000000        0
Si       0.00000000       2.47729046      15.91391781  F       0.00000000       0.00000000       0.00000000        0
O        2.95682518       3.71593569      18.65567124  F       0.00000000       0.00000000       0.00000000        0
O        3.71476040       0.49169241      20.50406469  T       2.09076368       1.29206270       0.41157582        0
O        1.23845065       4.46814744      20.50552182  T      -2.10906775      -1.05964297      -0.15828958        0
O        1.99775575       1.23864523      18.65567124  F       0.00000000       0.00000000       0.00000000        0
O        0.47953471       1.23864523      15.00000000  F       0.00000000       0.00000000       0.00000000        0
O        1.23864523       2.95682518      16.82783562  F       0.00000000       0.00000000       0.00000000        0
O        3.71593569       1.99775575      16.82783562  F       0.00000000       0.00000000       0.00000000        0
O        4.47504621       3.71593569      15.00000000  F       0.00000000       0.00000000       0.00000000        0
Si       0.00457603       0.00061808      21.43386571  T      -0.04155343       1.21731625      -1.49628720        0
Si       2.32820742       0.03506201      27.08547320  T       2.22077901      -0.74751336       0.90976955        0
Si       2.48136826       2.47665243      25.14562101  T      -0.04343650      -0.70648799       0.15928190        0
Si       0.00641593       2.47620802      23.28770922  T      -1.03428531      -0.37198526      -0.64149287        0
O        2.99743288       3.71948686      26.04001118  T       1.11281045       1.70728574      -1.54988707        0
O        3.46779422       0.50298973      28.11896922  T      -1.07463288      -0.28650609      -0.58006216        0
O        1.34692824       4.40736507      27.99476629  T      -0.09514868      -1.29827092       1.14620934        0
O        1.96987163       1.24551780      26.05472395  T       0.87524508       0.38730491       0.84294960        0
O        0.50822581       1.24979758      22.34245291  T       0.34532810      -0.74656229       0.35796168        0
O        1.25205950       2.97865608      24.19828405  T      -1.08897607       0.59970619       0.43808247        0
O        3.71053843       1.96722510      24.20224567  T       0.55224352       0.12249275       0.00223668        0
O        4.46282069       3.70678151      22.35846624  T       0.00657896       0.12464233       0.95511621        0
Si      -0.10648540       0.27740016      28.96753396  T       1.47043335       0.45130529       0.84122760        0
O        0.44246638       2.02288604      28.99922088  T      -0.68945897      -0.62592316       0.33529435        0
O        4.43736707       2.91252421      29.01228000  T       0.53318017      -0.39282741       0.51765222        0
Si       2.47729046       4.95458093      19.56958905  F       0.00000000       0.00000000       0.00000000        0
Si       2.47729046       7.43187139      17.74175343  F       0.00000000       0.00000000       0.00000000        0
Si       0.00000000       7.43187139      15.91391781  F       0.00000000       0.00000000       0.00000000        0
O        2.95682518       8.67051662      18.65567124  F       0.00000000       0.00000000       0.00000000        0
O        3.71598250       5.44532438      20.50471670  T       0.97298579      -1.35281250       0.37479766        0
O        1.24123221       9.43586534      20.51955872  T      -0.49724431       1.05765164      -0.11628485        0
O        1.99775575       6.19322616      18.65567124  F       0.00000000       0.00000000       0.00000000        0
O        0.47953471       6.19322616      15.00000000  F       0.00000000       0.00000000       0.00000000        0
O        1.23864523       7.91140610      16.82783562  F       0.00000000       0.00000000       0.00000000        0
O        3.71593569       6.95233667      16.82783562  F       0.00000000       0.00000000       0.00000000        0
O        4.47504621       8.67051662      15.00000000  F       0.00000000       0.00000000       0.00000000        0
Si      -0.00269247       4.95536695      21.43529655  T       0.16434361      -0.32473788      -1.05244971        0
Si       2.56324111       4.90889308      27.06904173  T      -1.78063803      -0.08144058       0.80645050        0
Si       2.48748705       7.40743804      25.20632266  T      -0.59618657       0.21072117      -0.25215952        0
Si      -0.00124194       7.41558702      23.32506277  T       1.95871090       2.49156133       2.49304957        0
O        2.96853755       8.67625909      26.09061617  T      -0.67407369       1.71053585       0.11415559        0
O        3.85445020       5.28369897      27.97192955  T       0.17713847       0.36245496      -0.60478035        0
O        1.21729433       9.46277520      27.95798264  T      -0.72395907      -1.34314846       0.53203910        0
O        2.07048233       6.17811153      26.17228444  T       0.90009602       0.51793131      -0.93578194        0
O        0.48608913       6.19100037      22.37012324  T      -0.18287706      -0.82049118       1.09846639        0
O        1.22683757       7.86412534      24.28200162  T      -0.30136687       0.66440657      -0.78255549        0
O        3.69440768       6.92821835      24.22284844  T       1.83389571      -0.89421790      -0.23231248        0
O        4.48804867       8.66393967      22.38965971  T      -0.52428107       0.34922054       1.33297241        0
Si       0.04930249       4.65596715      28.96241221  T       0.78152597       0.58139143      -0.30505643        0
O        0.18298409       5.16834983      30.42882208  T      -0.08985446      -0.20270764       0.09155084        0
O        4.45216551       8.36749846      29.72478909  T      -0.91744157       0.07625247      -2.14429732        0
Si       2.47729046       9.90916185      19.56958905  F       0.00000000       0.00000000       0.00000000        0
Si       2.47729046      12.38645231      17.74175343  F       0.00000000       0.00000000       0.00000000        0
Si       0.00000000      12.38645231      15.91391781  F       0.00000000       0.00000000       0.00000000        0
O        2.95682518      13.62509754      18.65567124  F       0.00000000       0.00000000       0.00000000        0
O        3.71536823      10.38612408      20.51471856  T      -0.53693688       0.19488104       0.77149762        0
O        1.23733716      14.36553385      20.49873843  T       0.56699991      -1.93473139       1.30381206        0
O        1.99775575      11.14780708      18.65567124  F       0.00000000       0.00000000       0.00000000        0
O        0.47953471      11.14780708      15.00000000  F       0.00000000       0.00000000       0.00000000        0
O        1.23864523      12.86598703      16.82783562  F       0.00000000       0.00000000       0.00000000        0
O        3.71593569      11.90691760      16.82783562  F       0.00000000       0.00000000       0.00000000        0
O        4.47504621      13.62509754      15.00000000  F       0.00000000       0.00000000       0.00000000        0
Si      -0.00044731       9.91205373      21.45669872  T      -0.52543757      -2.27176782       1.27326807        0
Si       2.47907053       9.90893443      27.03593660  T       1.60951181      -1.64137310       0.70299305        0
Si       2.47093075      12.41646059      25.21448725  T      -0.95409483      -0.77912365      -0.08886170        0
Si       0.00659545      12.40964837      23.33068322  T       1.03152777      -0.22823797      -2.14078016        0
O        2.86298539      13.64178192      26.19673911  T       0.82231233       1.10601095       1.29735137        0
O        3.73975394      10.35754367      27.95787967  T       0.15808969      -0.40279593       0.01451872        0
O        0.97805710      14.52917027      27.89736596  T      -2.00732753       0.39661939       0.12760760        0
O        1.99074452      11.13629459      26.08307804  T      -1.78985986      -0.71529262      -0.96300630        0
O        0.45961680      11.15528161      22.39601815  T      -0.68322505       0.69646416      -0.05509679        0
O        1.27592415      12.89386389      24.21596560  T       0.20083790       1.12594928       0.06361080        0
O        3.74549688      11.97473782      24.30323527  T       2.08336920       0.38042649      -0.54962348        0
O        4.45878905      13.62694365      22.36132352  T      -0.69097021       0.32544621      -0.83876312        0
Si       0.05565844      10.18257219      28.83844576  T      -1.45981504       0.97877161      -1.49311812        0
O        0.52582108      11.51494394      29.65659638  T       1.28373818      -0.87854008      -0.64747700        0
O        4.82687775      14.63930730      30.45046215  T       0.15344796      -0.62062211       0.21023427        0
Si       7.43187139       0.00000000      19.56958905  F       0.00000000       0.00000000       0.00000000        0
Si       7.43187139       2.47729046      17.74175343  F       0.00000000       0.00000000       0.00000000        0
Si       4.95458093       2.47729046      15.91391781  F       0.00000000       0.00000000       0.00000000        0
O        7.91140610       3.71593569      18.65567124  F       0.00000000       0.00000000       0.00000000        0
O        8.66887341       0.49257925      20.50380612  T      -0.49715372       0.12404742       1.38662356        0
O        6.19417776       4.46676954      20.50599919  T      -0.21377981       0.03467640       0.45302286        0
O        6.95233667       1.23864523      18.65567124  F       0.00000000       0.00000000       0.00000000        0
O        5.43411564       1.23864523      15.00000000  F       0.00000000       0.00000000       0.00000000        0
O        6.19322616       2.95682518      16.82783562  F       0.00000000       0.00000000       0.00000000        0
O        8.67051662       1.99775575      16.82783562  F       0.00000000       0.00000000       0.00000000        0
O        9.42962714       3.71593569      15.00000000  F       0.00000000       0.00000000       0.00000000        0
Si       4.95555062      -0.00033091      21.43178713  T      -0.51503122      -1.34451646      -0.40376988        0
Si       7.26883871       0.01596812      27.09079237  T       1.10091199      -0.44366730      -0.43099354        0
Si       7.44032913       2.47755299      25.15486382  T      -0.56826933      -1.07294400       1.74745000        0
Si       4.95821934       2.47079179      23.29482271  T       0.14354973       1.70131467      -1.45435954        0
O        7.94629033       3.73016215      26.04266191  T       0.40683176      -1.15374699       1.01055537        0
O        8.39595605       0.44883898      28.15404013  T      -0.38372805      -1.27732208      -0.89171528        0
O        6.32651461       4.44616836      28.01234297  T       1.25401115       0.01176542       0.67368738        0
O        6.94909066       1.24422606      26.07178141  T      -0.90034187       0.49677711       0.74819484        0
O        5.45714182       1.24113064      22.35204680  T      -1.15494671      -0.91235580       0.17137498        0
O        6.20262600       2.96469428      24.21157929  T       0.87001219       1.05648821       0.28457941        0
O        8.67047256       1.97676070      24.20959031  T       0.52598262       0.34988773      -0.47181624        0
O        9.42058075       3.71356653      22.36333895  T       1.79294449      -0.24902100      -1.15937114        0
Si       4.84127935       0.27397392      28.97258242  T       0.96547204      -1.05089540       0.01094039        0
O        5.44094487       2.01743913      28.98400107  T      -0.27644769       0.58401882       1.47412039        0
O        9.34420338       2.93402752      29.01362172  T      -0.09519229      -1.27175228      -0.95550137        0
Si       7.43187139       4.95458093      19.56958905  F       0.00000000       0.00000000       0.00000000        0
Si       7.43187139       7.43187139      17.74175343  F       0.00000000       0.00000000       0.00000000        0
Si       4.95458093       7.43187139      15.91391781  F       0.00000000       0.00000000       0.00000000        0
O        7.91140610       8.67051662      18.65567124  F       0.00000000       0.00000000       0.00000000        0
O        8.67111327       5.44493093      20.50445627  T       0.69198545       0.53297295      -0.47796393        0
O        6.19597920       9.43534529      20.51934816  T      -1.03878253       0.77085217       0.64964985        0
O        6.95233667       6.19322616      18.65567124  F       0.00000000       0.00000000       0.00000000        0
O        5.43411564       6.19322616      15.00000000  F       0.00000000       0.00000000       0.00000000        0
O        6.19322616       7.91140610      16.82783562  F       0.00000000       0.00000000       0.00000000        0
O        8.67051662       6.95233667      16.82783562  F       0.00000000       0.00000000       0.00000000        0
O        9.42962714       8.67051662      15.00000000  F       0.00000000       0.00000000       0.00000000        0
Si       4.95319948       4.95172814      21.43701765  T       0.05083873      -0.92611233      -0.57095377        0
Si       7.53625320       4.92980112      27.06794012  T      -2.96897746      -1.69822168      -0.48680107        0
Si       7.45720785       7.41290781      25.18674288  T      -0.24670321      -0.95045219       2.09694449        0
Si       4.95357558       7.41439511      23.32413146  T       1.02916444       0.24743565       0.79426272        0
O        7.97009299       8.69645937      26.03537001  T      -0.19036995       0.01039873      -0.61395488        0
O        8.82827942       5.31146804      27.96682032  T       0.32297620      -0.32752519      -0.14490980        0
O        6.19938798       9.38472685      27.90175737  T      -0.96806717       0.03938863       0.57103543        0
O        7.04199840       6.20062199      26.17554095  T      -0.99456583       0.58260289      -0.15492414        0
O        5.44065171       6.18810427      22.37127018  T      -0.36682314       0.68157722       0.88922130        0
O        6.18508363       7.86502448      24.27620962  T      -1.67407628      -0.08465165      -0.19156099        0
O        8.64578712       6.90394452      24.19444469  T      -0.32794244      -0.75944076       0.96146536        0
O        9.44582607       8.66513724      22.38972618  T       0.31296684      -0.25690846      -0.21294725        0
Si       5.00564656       4.65008848      28.95770637  T       0.35509891       0.60060316       0.11983796        0
O        5.16943394       5.11797975      30.43854724  T      -0.83425216       0.31665664       0.35379345        0
O        9.71553182       9.62501629      30.32968948  T      -1.14738432      -0.35493479      -0.21420487        0
Si       7.43187139       9.90916185      19.56958905  F       0.00000000       0.00000000       0.00000000        0
Si       7.43187139      12.38645231      17.74175343  F       0.00000000       0.00000000       0.00000000        0
Si       4.95458093      12.38645231      15.91391781  F       0.00000000       0.00000000       0.00000000        0
O        7.91140610      13.62509754      18.65567124  F       0.00000000       0.00000000       0.00000000        0
O        8.66950870      10.38624803      20.51480628  T      -0.72752829      -0.14049252       0.16184407        0
O        6.19165076      14.36729450      20.49963964  T       0.85811401      -0.52539921      -0.05077482        0
O        6.95233667      11.14780708      18.65567124  F       0.00000000       0.00000000       0.00000000        0
O        5.43411564      11.14780708      15.00000000  F       0.00000000       0.00000000       0.00000000        0
O        6.19322616      12.86598703      16.82783562  F       0.00000000       0.00000000       0.00000000        0
O        8.67051662      11.90691760      16.82783562  F       0.00000000       0.00000000       0.00000000        0
O        9.42962714      13.62509754      15.00000000  F       0.00000000       0.00000000       0.00000000        0
Si       4.95332758       9.90984052      21.45576555  T       2.86523974       1.23615697      -1.06911261        0
Si       7.43003952       9.90437685      26.98889266  T      -2.19360303      -1.90582084       0.48972049        0
Si       7.41110492      12.41207696      25.19993526  T      -0.11489216      -0.91760354      -0.99577587        0
Si       4.95801327      12.41218474      23.32285535  T       1.11327804       0.53797989      -1.67639612        0
O        7.80291716      13.62350970      26.20113000  T       0.93902165      -0.40381765       0.95746997        0
O        8.64733447      10.41315542      27.92318201  T      -0.30798599      -0.30773596      -0.93380727        0
O        5.90783700      14.51536014      27.88622782  T       0.44895635      -0.47888825       0.10642403        0
O        6.90162839      11.11973888      26.03749289  T      -0.18714033       0.16771805       0.51776493        0
O        5.41212351      11.15186866      22.39749060  T      -0.13583476      -0.73722230      -0.98844047        0
O        6.23229459      12.91472336      24.19263974  T       0.25984906       0.19564724       0.16621072        0
O        8.69588594      11.97542665      24.30080400  T      -0.31180142       2.17061775       0.37928425        0
O        9.41251589      13.62921410      22.36194046  T       1.03772334       0.14962043      -1.05821865        0
Si       4.91161597       9.66403981      28.84471159  T      -1.27106172       2.32106903      -0.25771801        0
O        5.23091145      10.38132559      30.27777702  T      -0.88645346       1.24622935       1.62333919        0
O        9.78170808      14.72061207      30.47386276  T      -0.24521034       0.05523380      -1.17257203        0
Si      12.38645231       0.00000000      19.56958905  F       0.00000000       0.00000000       0.00000000        0
Si      12.38645231       2.47729046      17.74175343  F       0.00000000       0.00000000       0.00000000        0
Si       9.90916185       2.47729046      15.91391781  F       0.00000000       0.00000000       0.00000000        0
O       12.86598703       3.71593569      18.65567124  F       0.00000000       0.00000000       0.00000000        0
O       13.62361977       0.48602244      20.50759998  T      -1.00942996       0.46331116       0.67440600        0
O       11.14820654       4.45958185      20.50097107  T       1.35544336       0.57820301       0.61527183        0
O       11.90691760       1.23864523      18.65567124  F       0.00000000       0.00000000       0.00000000        0
O       10.38869656       1.23864523      15.00000000  F       0.00000000       0.00000000       0.00000000        0
O       11.14780708       2.95682518      16.82783562  F       0.00000000       0.00000000       0.00000000        0
O       13.62509754       1.99775575      16.82783562  F       0.00000000       0.00000000       0.00000000        0
O       14.38420806       3.71593569      15.00000000  F       0.00000000       0.00000000       0.00000000        0
Si       9.90940509       0.00170032      21.43233815  T       2.33962773      -0.07912598       0.52482864        0
Si      12.22957666       0.01075045      27.08754989  T       1.03200650      -0.71135587      -1.51067240        0
Si      12.40086153       2.46426539      25.14827286  T       0.09290925      -0.21531019       0.44879364        0
Si       9.91600891       2.47515282      23.29671290  T       1.08904694      -0.39660017      -0.27117955        0
O       12.91411750       3.70706962      26.04503616  T      -0.75455457       0.91389040      -0.19432964        0
O       13.36439040       0.45719844      28.13597352  T      -0.71040558       0.12146718       0.07137788        0
O       11.27011032       4.40875456      28.00342609  T       0.85737174       0.93604857      -0.16251100        0
O       11.90263240       1.22786482      26.05575734  T      -0.27715666      -0.14503972      -0.90015487        0
O       10.40783147       1.24408290      22.35248766  T      -0.80518913       0.78845338      -0.37713141        0
O       11.16450170       2.96504864      24.20985862  T       0.96436119      -0.09084049       0.78874248        0
O       13.62770714       1.96482762      24.19744119  T      -0.77782115       0.92247527      -0.94685909        0
O       14.36488932       3.71080375      22.35445190  T       0.19551036      -0.59294820       0.14507387        0
Si       9.79865642       0.29011153      28.96756059  T      -1.04768280       0.93193106       1.89074365        0
O       10.35780472       2.02237904      28.99975018  T       0.96176567      -1.03036708       0.70731590        0
O       14.30206883       2.91328615      28.99029046  T       0.17639332       0.55341306      -1.80205957        0
Si      12.38645231       4.95458093      19.56958905  F       0.00000000       0.00000000       0.00000000        0
Si      12.38645231       7.43187139      17.74175343  F       0.00000000       0.00000000       0.00000000        0
Si       9.90916185       7.43187139      15.91391781  F       0.00000000       0.00000000       0.00000000        0
O       12.86598703       8.67051662      18.65567124  F       0.00000000       0.00000000       0.00000000        0
O       13.62422284       5.45011720      20.50316588  T      -0.01191770      -0.29628290       0.70700408        0
O       11.15033883       9.43573750      20.51865113  T       1.95140664      -0.34353430       1.16948892        0
O       11.90691760       6.19322616      18.65567124  F       0.00000000       0.00000000       0.00000000        0
O       10.38869656       6.19322616      15.00000000  F       0.00000000       0.00000000       0.00000000        0
O       11.14780708       7.91140610      16.82783562  F       0.00000000       0.00000000       0.00000000        0
O       13.62509754       6.95233667      16.82783562  F       0.00000000       0.00000000       0.00000000        0
O       14.38420806       8.67051662      15.00000000  F       0.00000000       0.00000000       0.00000000        0
Si       9.91120910       4.95169328      21.43306900  T       0.79071963       2.34935220      -1.46774655        0
Si      12.48131580       4.90132954      27.06678584  T       1.13601655      -0.88249159      -0.99184585        0
Si      12.39330712       7.39895986      25.20495164  T      -0.86355212      -0.43084071       0.02163567        0
Si       9.91200666       7.40928711      23.31464905  T      -0.41446610      -0.00650019      -0.27510293        0
O       12.87097612       8.66074960      26.10151371  T       0.85325648       2.07265306      -0.85298856        0
O       13.76932081       5.29202093      27.96397669  T      -1.08800741       0.41465488      -1.01698413        0
O       11.12362055       9.47142540      27.95980788  T       0.36773377      -0.43364455      -1.63895492        0
O       11.97519237       6.16065717      26.16126463  T      -0.20770146      -0.62250663       0.20760304        0
O       10.41084855       6.19245780      22.35584072  T      -0.10876769       0.44363915      -0.13181010        0
O       11.13218352       7.85719027      24.28244015  T      -0.58544844       1.48446806      -0.28544726        0
O       13.60126157       6.92592483      24.21967651  T      -0.10336177      -0.49755127      -0.00713060        0
O       14.39850881       8.66730674      22.39296950  T      -0.31985803      -0.59851665       1.24105597        0
Si       9.96173318       4.64865433      28.95412668  T      -0.68030732       0.27832200      -0.38400370        0
O       10.10604671       5.15891760      30.42680715  T      -0.39713701       1.93949101       0.54098706        0
O       14.62403571       9.51964227      30.30275378  T      -0.45390387       0.82009656       0.05610542        0
Si      12.38645231       9.90916185      19.56958905  F       0.00000000       0.00000000       0.00000000        0
Si      12.38645231      12.38645231      17.74175343  F       0.00000000       0.00000000       0.00000000        0
Si       9.90916185      12.38645231      15.91391781  F       0.00000000       0.00000000       0.00000000        0
O       12.86598703      13.62509754      18.65567124  F       0.00000000       0.00000000       0.00000000        0
O       13.62421444      10.38584735      20.51560437  T       1.17645760      -1.01996846      -0.70256768        0
O       11.14562345      14.36947075      20.50021534  T      -0.45510750      -0.00510491       0.88068403        0
O       11.90691760      11.14780708      18.65567124  F       0.00000000       0.00000000       0.00000000        0
O       10.38869656      11.14780708      15.00000000  F       0.00000000       0.00000000       0.00000000        0
O       11.14780708      12.86598703      16.82783562  F       0.00000000       0.00000000       0.00000000        0
O       13.62509754      11.90691760      16.82783562  F       0.00000000       0.00000000       0.00000000        0
O       14.38420806      13.62509754      15.00000000  F       0.00000000       0.00000000       0.00000000        0
Si       9.90839416       9.91138295      21.45506000  T       0.79217572      -0.53627764       0.68890714        0
Si      12.36887070       9.91271487      27.01233799  T      -0.64011522      -0.31074420      -1.28331546        0
Si      12.36304456      12.40442409      25.19867468  T       0.30573811       0.23388122       0.58126101        0
Si       9.91082566      12.41325340      23.32266433  T      -0.73987845      -1.04413377       1.34061789        0
O       12.75029892      13.60525394      26.21108098  T      -1.35396082      -0.02357130       1.68512044        0
O       13.61624797      10.42151487      27.90768354  T       2.01427293      -1.08341652       0.13140054        0
O       10.87066807      14.52658915      27.89718648  T      -0.52629847       0.87965211       0.10334440        0
O       11.85391421      11.10401163      26.02305931  T       1.34687093      -0.05885465       0.76617835        0
O       10.36548451      11.15394305      22.39600664  T       0.02430055      -1.66885583       1.15439046        0
O       11.18473233      12.91264717      24.19369801  T       0.94371659      -0.25920484      -0.10719608        0
O       13.64819050      11.97077505      24.29815529  T       0.05439612      -0.72291956      -0.84271103        0
O       14.38187957      13.63380661      22.37554017  T      -0.95779037       0.11560766      -1.57749955        0
Si       9.97421200      10.22267222      28.83165033  T       1.39264307       0.66794197       0.24443358        0
O       10.44463299      11.59980399      29.57223584  T      -1.02877654      -0.40235504      -0.92205771        0
O       14.71950084      14.68042509      30.45823451  T       0.26534342       0.10378082      -0.71217842        0
H       10.67422626       5.45569876      14.45582528  F       0.00000000       0.00000000       0.00000000        0
H        4.18951652       9.40804402      14.45582528  F       0.00000000       0.00000000       0.00000000        0
H        4.18951652      14.36262494      14.45582528  F       0.00000000       0.00000000       0.00000000        0
H        9.14409745       9.40804402      14.45582528  F       0.00000000       0.00000000       0.00000000        0
H        9.14409745      14.36262494      14.45582528  F       0.00000000       0.00000000       0.00000000        0
H       14.09867837       4.45346309      14.45582528  F       0.00000000       0.00000000       0.00000000        0
H       14.09867837       9.40804402      14.45582528  F       0.00000000       0.00000000       0.00000000        0
H        0.76506440       5.45569876      14.45582528  F       0.00000000       0.00000000       0.00000000        0
H        5.71964533       0.50111783      14.45582528  F       0.00000000       0.00000000       0.00000000        0
H        5.71964533       5.45569876      14.45582528  F       0.00000000       0.00000000       0.00000000        0
H       10.67422626       0.50111783      14.45582528  F       0.00000000       0.00000000       0.00000000        0
H       14.09867837      14.36262494      14.45582528  F       0.00000000       0.00000000       0.00000000        0
H        0.76506440      10.41027968      14.45582528  F       0.00000000       0.00000000       0.00000000        0
H        5.71964533      10.41027968      14.45582528  F       0.00000000       0.00000000       0.00000000        0
H       10.67422626      10.41027968      14.45582528  F       0.00000000       0.00000000       0.00000000        0
H        0.76506440       0.50111783      14.45582528  F       0.00000000       0.00000000       0.00000000        0
H        4.18951652       4.45346309      14.45582528  F       0.00000000       0.00000000       0.00000000        0
H        9.14409745       4.45346309      14.45582528  F       0.00000000       0.00000000       0.00000000        0
C        7.50269756       4.30936709      33.54585721  T       0.00000000       0.00000000       0.00000000        2