277
Lattice="14.863742776096284 0.0 0.0 2.4e-15 14.863742776096284 0.0 0.0 0.0 44.62268496864509" Properties=species:S:1:pos:R:3:momenta:R:3:tags:I:1 mechanism="Physisorption, center=com, tag=2" candidate_id=5 energy=-1979.7415771484375 E_ads_eV=-2.048095703125 pbc="T T T"
Si       2.47729046       0.00000000      19.56958905       0.00000000       0.00000000       0.00000000        0
Si       2.47729046       2.47729046      17.74175343       0.00000000       0.00000000       0.00000000        0
Si       0.00000000       2.47729046      15.91391781       0.00000000       0.00000000       0.00000000        0
O        2.95682518       3.71593569      18.65567124       0.00000000       0.00000000       0.00000000        0
O        3.71481072       0.49160890      20.50393407       2.09076368       1.29206270       0.41157582        0
O        1.23843629       4.46823640      20.50540712      -2.10906775      -1.05964297      -0.15828958        0
O        1.99775575       1.23864523      18.65567124       0.00000000       0.00000000       0.00000000        0
O        0.47953471       1.23864523      15.00000000       0.00000000       0.00000000       0.00000000        0
O        1.23864523       2.95682518      16.82783562       0.00000000       0.00000000       0.00000000        0
O        3.71593569       1.99775575      16.82783562       0.00000000       0.00000000       0.00000000        0
O        4.47504621       3.71593569      15.00000000       0.00000000       0.00000000       0.00000000        0
Si       0.00461767       0.00080661      21.43403859      -0.04155343       1.21731625      -1.49628720        0
Si       2.32901728       0.03534616      27.08704308       2.22077901      -0.74751336       0.90976955        0
Si       2.48122207       2.47613743      25.14580177      -0.04343650      -0.70648799       0.15928190        0
Si       0.00625557       2.47619012      23.28813087      -1.03428531      -0.37198526      -0.64149287        0
O        2.99722779       3.71943307      26.03981951       1.11281045       1.70728574      -1.54988707        0
O        3.47058039       0.50478744      28.11722945      -1.07463288      -0.28650609      -0.58006216        0
O        1.34695259       4.40887611      27.99737268      -0.09514868      -1.29827092       1.14620934        0
O        1.96961058       1.24525426      26.05467104       0.87524508       0.38730491       0.84294960        0
O        0.50840956       1.25008380      22.34237395       0.34532810      -0.74656229       0.35796168        0
O        1.25221929       2.97896351      24.19799063      -1.08897607       0.59970619       0.43808247        0
O        3.71049797       1.96738761      24.20196065       0.55224352       0.12249275       0.00223668        0
O        4.46260140       3.70647521      22.35843120       0.00657896       0.12464233       0.95511621        0
Si      -0.10848989       0.27539355      28.96771822       1.47043335       0.45130529       0.84122760        0
O        0.44404540       2.02332404      28.99819712      -0.68945897      -0.62592316       0.33529435        0
O        4.43456927       2.90860860      29.00921685       0.53318017      -0.39282741       0.51765222        0
Si       2.47729046       4.95458093      19.56958905       0.00000000       0.00000000       0.00000000        0
Si       2.47729046       7.43187139      17.74175343       0.00000000       0.00000000       0.00000000        0
Si       0.00000000       7.43187139      15.91391781       0.00000000       0.00000000       0.00000000        0
O        2.95682518       8.67051662      18.65567124       0.00000000       0.00000000       0.00000000        0
O        3.71604804       5.44536863      20.50466925       0.97298579      -1.35281250       0.37479766        0
O        1.24124888       9.43585577      20.51948940      -0.49724431       1.05765164      -0.11628485        0
O        1.99775575       6.19322616      18.65567124       0.00000000       0.00000000       0.00000000        0
O        0.47953471       6.19322616      15.00000000       0.00000000       0.00000000       0.00000000        0
O        1.23864523       7.91140610      16.82783562       0.00000000       0.00000000       0.00000000        0
O        3.71593569       6.95233667      16.82783562       0.00000000       0.00000000       0.00000000        0
O        4.47504621       8.67051662      15.00000000       0.00000000       0.00000000       0.00000000        0
Si      -0.00265883       4.95530515      21.43540322       0.16434361      -0.32473788      -1.05244971        0
Si       2.56414727       4.90855947      27.07091488      -1.78063803      -0.08144058       0.80645050        0
Si       2.48726265       7.40717138      25.20641910      -0.59618657       0.21072117      -0.25215952        0
Si      -0.00137335       7.41559230      23.32504359       1.95871090       2.49156133       2.49304957        0
O        2.96819981       8.67624450      26.09058167      -0.67407369       1.71053585       0.11415559        0
O        3.85580155       5.28216771      27.97401569       0.17713847       0.36245496      -0.60478035        0
O        1.21481120       9.46215900      27.95961567      -0.72395907      -1.34314846       0.53203910        0
O        2.07059071       6.17783868      26.17299621       0.90009602       0.51793131      -0.93578194        0
O        0.48632317       6.19100653      22.37000733      -0.18287706      -0.82049118       1.09846639        0
O        1.22653866       7.86415217      24.28193595      -0.30136687       0.66440657      -0.78255549        0
O        3.69479643       6.92838309      24.22300544       1.83389571      -0.89421790      -0.23231248        0
O        4.48794994       8.66409697      22.38970512      -0.52428107       0.34922054       1.33297241        0
Si       0.04745879       4.65589950      28.96584625       0.78152597       0.58139143      -0.30505643        0
O        0.20835293       5.18168391      30.42408637      -0.08985446      -0.20270764       0.09155084        0
O        4.44579714       8.35986253      29.72888891      -0.91744157       0.07625247      -2.14429732        0
Si       2.47729046       9.90916185      19.56958905       0.00000000       0.00000000       0.00000000        0
Si       2.47729046      12.38645231      17.74175343       0.00000000       0.00000000       0.00000000        0
Si       0.00000000      12.38645231      15.91391781       0.00000000       0.00000000       0.00000000        0
O        2.95682518      13.62509754      18.65567124       0.00000000       0.00000000       0.00000000        0
O        3.71529995      10.38609866      20.51462390      -0.53693688       0.19488104       0.77149762        0
O        1.23725403      14.36553422      20.49866344       0.56699991      -1.93473139       1.30381206        0
O        1.99775575      11.14780708      18.65567124       0.00000000       0.00000000       0.00000000        0
O        0.47953471      11.14780708      15.00000000       0.00000000       0.00000000       0.00000000        0
O        1.23864523      12.86598703      16.82783562       0.00000000       0.00000000       0.00000000        0
O        3.71593569      11.90691760      16.82783562       0.00000000       0.00000000       0.00000000        0
O        4.47504621      13.62509754      15.00000000       0.00000000       0.00000000       0.00000000        0
Si      -0.00040927       9.91218182      21.45675064      -0.52543757      -2.27176782       1.27326807        0
Si       2.47993634       9.90847399      27.03911504       1.60951181      -1.64137310       0.70299305        0
Si       2.47115637      12.41609742      25.21519978      -0.95409483      -0.77912365      -0.08886170        0
Si       0.00652454      12.40965802      23.33085505       1.03152777      -0.22823797      -2.14078016        0
O        2.86255237      13.64218130      26.19652716       0.82231233       1.10601095       1.29735137        0
O        3.74462258      10.35935466      27.95729537       0.15808969      -0.40279593       0.01451872        0
O        0.97726099      14.53016200      27.89622058      -2.00732753       0.39661939       0.12760760        0
O        1.99070250      11.13504354      26.08296492      -1.78985986      -0.71529262      -0.96300630        0
O        0.45963001      11.15528999      22.39604592      -0.68322505       0.69646416      -0.05509679        0
O        1.27596346      12.89322166      24.21602749       0.20083790       1.12594928       0.06361080        0
O        3.74551835      11.97437964      24.30305784       2.08336920       0.38042649      -0.54962348        0
O        4.45862164      13.62690059      22.36111662      -0.69097021       0.32544621      -0.83876312        0
Si       0.05332982      10.18294715      28.84448779      -1.45981504       0.97877161      -1.49311812        0
O        0.53033292      11.51428970      29.66152649       1.28373818      -0.87854008      -0.64747700        0
O        4.81311690      14.62643750      30.44923298       0.15344796      -0.62062211       0.21023427        0
Si       7.43187139       0.00000000      19.56958905       0.00000000       0.00000000       0.00000000        0
Si       7.43187139       2.47729046      17.74175343       0.00000000       0.00000000       0.00000000        0
Si       4.95458093       2.47729046      15.91391781       0.00000000       0.00000000       0.00000000        0
O        7.91140610       3.71593569      18.65567124       0.00000000       0.00000000       0.00000000        0
O        8.66896122       0.49247126      20.50364677      -0.49715372       0.12404742       1.38662356        0
O        6.19416370       4.46681789      20.50584651      -0.21377981       0.03467640       0.45302286        0
O        6.95233667       1.23864523      18.65567124       0.00000000       0.00000000       0.00000000        0
O        5.43411564       1.23864523      15.00000000       0.00000000       0.00000000       0.00000000        0
O        6.19322616       2.95682518      16.82783562       0.00000000       0.00000000       0.00000000        0
O        8.67051662       1.99775575      16.82783562       0.00000000       0.00000000       0.00000000        0
O        9.42962714       3.71593569      15.00000000       0.00000000       0.00000000       0.00000000        0
Si       4.95551954      -0.00029169      21.43192856      -0.51503122      -1.34451646      -0.40376988        0
Si       7.26896321       0.01658169      27.09205205       1.10091199      -0.44366730      -0.43099354        0
Si       7.44010280       2.47739957      25.15535320      -0.56826933      -1.07294400       1.74745000        0
Si       4.95842944       2.47079270      23.29511204       0.14354973       1.70131467      -1.45435954        0
O        7.94512005       3.73026551      26.04195795       0.40683176      -1.15374699       1.01055537        0
O        8.39834626       0.45334776      28.14858324      -0.38372805      -1.27732208      -0.89171528        0
O        6.32365353       4.44755592      28.01150538       1.25401115       0.01176542       0.67368738        0
O        6.94860174       1.24402300      26.07092624      -0.90034187       0.49677711       0.74819484        0
O        5.45695207       1.24133692      22.35186639      -1.15494671      -0.91235580       0.17137498        0
O        6.20314768       2.96480804      24.21126829       0.87001219       1.05648821       0.28457941        0
O        8.66968631       1.97648717      24.20908013       0.52598262       0.34988773      -0.47181624        0
O        9.42060181       3.71302457      22.36317154       1.79294449      -0.24902100      -1.15937114        0
Si       4.84170332       0.27089136      28.97599832       0.96547204      -1.05089540       0.01094039        0
O        5.43800818       2.01674575      28.97362049      -0.27644769       0.58401882       1.47412039        0
O        9.35153077       2.92296957      28.99210267      -0.09519229      -1.27175228      -0.95550137        0
Si       7.43187139       4.95458093      19.56958905       0.00000000       0.00000000       0.00000000        0
Si       7.43187139       7.43187139      17.74175343       0.00000000       0.00000000       0.00000000        0
Si       4.95458093       7.43187139      15.91391781       0.00000000       0.00000000       0.00000000        0
O        7.91140610       8.67051662      18.65567124       0.00000000       0.00000000       0.00000000        0
O        8.67125831       5.44493767      20.50436624       0.69198545       0.53297295      -0.47796393        0
O        6.19600508       9.43527899      20.51926233      -1.03878253       0.77085217       0.64964985        0
O        6.95233667       6.19322616      18.65567124       0.00000000       0.00000000       0.00000000        0
O        5.43411564       6.19322616      15.00000000       0.00000000       0.00000000       0.00000000        0
O        6.19322616       7.91140610      16.82783562       0.00000000       0.00000000       0.00000000        0
O        8.67051662       6.95233667      16.82783562       0.00000000       0.00000000       0.00000000        0
O        9.42962714       8.67051662      15.00000000       0.00000000       0.00000000       0.00000000        0
Si       4.95314933       4.95141647      21.43712734       0.05083873      -0.92611233      -0.57095377        0
Si       7.53656100       4.92909962      27.06884285      -2.96897746      -1.69822168      -0.48680107        0
Si       7.45692864       7.41281428      25.18759933      -0.24670321      -0.95045219       2.09694449        0
Si       4.95380045       7.41444788      23.32406366       1.02916444       0.24743565       0.79426272        0
O        7.96993149       8.69723062      26.03506187      -0.19036995       0.01039873      -0.61395488        0
O        8.83275526       5.30254366      27.96035532       0.32297620      -0.32752519      -0.14490980        0
O        6.19527024       9.38468734      27.90252620      -0.96806717       0.03938863       0.57103543        0
O        7.04015731       6.19941884      26.17543939      -0.99456583       0.58260289      -0.15492414        0
O        5.44049500       6.18790572      22.37112156      -0.36682314       0.68157722       0.88922130        0
O        6.18513021       7.86547978      24.27631198      -1.67407628      -0.08465165      -0.19156099        0
O        8.64556556       6.90456017      24.19438215      -0.32794244      -0.75944076       0.96146536        0
O        9.44585236       8.66500134      22.38969625       0.31296684      -0.25690846      -0.21294725        0
Si       5.00771309       4.65228108      28.96005193       0.35509891       0.60060316       0.11983796        0
O        5.14086744       5.15304752      30.43157521      -0.83425216       0.31665664       0.35379345        0
O        9.70217058       9.62158891      30.33425521      -1.14738432      -0.35493479      -0.21420487        0
Si       7.43187139       9.90916185      19.56958905       0.00000000       0.00000000       0.00000000        0
Si       7.43187139      12.38645231      17.74175343       0.00000000       0.00000000       0.00000000        0
Si       4.95458093      12.38645231      15.91391781       0.00000000       0.00000000       0.00000000        0
O        7.91140610      13.62509754      18.65567124       0.00000000       0.00000000       0.00000000        0
O        8.66952376      10.38621587      20.51470657      -0.72752829      -0.14049252       0.16184407        0
O        6.19154140      14.36724318      20.49952455       0.85811401      -0.52539921      -0.05077482        0
O        6.95233667      11.14780708      18.65567124       0.00000000       0.00000000       0.00000000        0
O        5.43411564      11.14780708      15.00000000       0.00000000       0.00000000       0.00000000        0
O        6.19322616      12.86598703      16.82783562       0.00000000       0.00000000       0.00000000        0
O        8.67051662      11.90691760      16.82783562       0.00000000       0.00000000       0.00000000        0
O        9.42962714      13.62509754      15.00000000       0.00000000       0.00000000       0.00000000        0
Si       4.95331761       9.90989217      21.45580831       2.86523974       1.23615697      -1.06911261        0
Si       7.42882641       9.90464748      26.99077063      -2.19360303      -1.90582084       0.48972049        0
Si       7.41157880      12.41305901      25.20051503      -0.11489216      -0.91760354      -0.99577587        0
Si       4.95800262      12.41217396      23.32290831       1.11327804       0.53797989      -1.67639612        0
O        7.80320023      13.62430946      26.20138441       0.93902165      -0.40381765       0.95746997        0
O        8.64891182      10.41179146      27.92389985      -0.30798599      -0.30773596      -0.93380727        0
O        5.90590080      14.51622649      27.88381083       0.44895635      -0.47888825       0.10642403        0
O        6.90230279      11.11950645      26.03635694      -0.18714033       0.16771805       0.51776493        0
O        5.41193053      11.15176709      22.39753074      -0.13583476      -0.73722230      -0.98844047        0
O        6.23237224      12.91405792      24.19268703       0.25984906       0.19564724       0.16621072        0
O        8.69563655      11.97483517      24.30048741      -0.31180142       2.17061775       0.37928425        0
O        9.41245173      13.62906939      22.36168453       1.03772334       0.14962043      -1.05821865        0
Si       4.91052512       9.66149568      28.85926274      -1.27106172       2.32106903      -0.25771801        0
O        5.23408373      10.38109466      30.29516446      -0.88645346       1.24622935       1.62333919        0
O        9.78683967      14.69236802      30.46531133      -0.24521034       0.05523380      -1.17257203        0
Si      12.38645231       0.00000000      19.56958905       0.00000000       0.00000000       0.00000000        0
Si      12.38645231       2.47729046      17.74175343       0.00000000       0.00000000       0.00000000        0
Si       9.90916185       2.47729046      15.91391781       0.00000000       0.00000000       0.00000000        0
O       12.86598703       3.71593569      18.65567124       0.00000000       0.00000000       0.00000000        0
O       13.62368266       0.48599665      20.50746420      -1.00942996       0.46331116       0.67440600        0
O       11.14812687       4.45970080      20.50082471       1.35544336       0.57820301       0.61527183        0
O       11.90691760       1.23864523      18.65567124       0.00000000       0.00000000       0.00000000        0
O       10.38869656       1.23864523      15.00000000       0.00000000       0.00000000       0.00000000        0
O       11.14780708       2.95682518      16.82783562       0.00000000       0.00000000       0.00000000        0
O       13.62509754       1.99775575      16.82783562       0.00000000       0.00000000       0.00000000        0
O       14.38420806       3.71593569      15.00000000       0.00000000       0.00000000       0.00000000        0
Si       9.90940617       0.00187426      21.43258545       2.33962773      -0.07912598       0.52482864        0
Si      12.22912888       0.01078474      27.08795698       1.03200650      -0.71135587      -1.51067240        0
Si      12.40106300       2.46479560      25.14900662       0.09290925      -0.21531019       0.44879364        0
Si       9.91591317       2.47510035      23.29731285       1.08904694      -0.39660017      -0.27117955        0
O       12.91580386       3.70818443      26.04450714      -0.75455457       0.91389040      -0.19432964        0
O       13.36546701       0.45758703      28.13378855      -0.71040558       0.12146718       0.07137788        0
O       11.26332899       4.39919080      27.99470842       0.85737174       0.93604857      -0.16251100        0
O       11.90262603       1.22839911      26.05558568      -0.27715666      -0.14503972      -0.90015487        0
O       10.40791891       1.24465919      22.35229501      -0.80518913       0.78845338      -0.37713141        0
O       11.16510359       2.96524399      24.20939140       0.96436119      -0.09084049       0.78874248        0
O       13.62714765       1.96459035      24.19730288      -0.77782115       0.92247527      -0.94685909        0
O       14.36508235       3.71064731      22.35437464       0.19551036      -0.59294820       0.14507387        0
Si       9.79476999       0.28045418      28.97346206      -1.04768280       0.93193106       1.89074365        0
O       10.34930943       2.02871917      28.98810276       0.96176567      -1.03036708       0.70731590        0
O       14.30536402       2.91479242      28.98860332       0.17639332       0.55341306      -1.80205957        0
Si      12.38645231       4.95458093      19.56958905       0.00000000       0.00000000       0.00000000        0
Si      12.38645231       7.43187139      17.74175343       0.00000000       0.00000000       0.00000000        0
Si       9.90916185       7.43187139      15.91391781       0.00000000       0.00000000       0.00000000        0
O       12.86598703       8.67051662      18.65567124       0.00000000       0.00000000       0.00000000        0
O       13.62429590       5.45019845      20.50307788      -0.01191770      -0.29628290       0.70700408        0
O       11.15033080       9.43574951      20.51855349       1.95140664      -0.34353430       1.16948892        0
O       11.90691760       6.19322616      18.65567124       0.00000000       0.00000000       0.00000000        0
O       10.38869656       6.19322616      15.00000000       0.00000000       0.00000000       0.00000000        0
O       11.14780708       7.91140610      16.82783562       0.00000000       0.00000000       0.00000000        0
O       13.62509754       6.95233667      16.82783562       0.00000000       0.00000000       0.00000000        0
O       14.38420806       8.67051662      15.00000000       0.00000000       0.00000000       0.00000000        0
Si       9.91119908       4.95150959      21.43327061       0.79071963       2.34935220      -1.46774655        0
Si      12.47946681       4.90065543      27.06889364       1.13601655      -0.88249159      -0.99184585        0
Si      12.39313706       7.39859785      25.20536395      -0.86355212      -0.43084071       0.02163567        0
Si       9.91218542       7.40932863      23.31485449      -0.41446610      -0.00650019      -0.27510293        0
O       12.87123570       8.66116844      26.10067155       0.85325648       2.07265306      -0.85298856        0
O       13.76934195       5.29212540      27.96463068      -1.08800741       0.41465488      -1.01698413        0
O       11.12188520       9.47130049      27.96003102       0.36773377      -0.43364455      -1.63895492        0
O       11.97635901       6.15983417      26.16099364      -0.20770146      -0.62250663       0.20760304        0
O       10.41088550       6.19261071      22.35558203      -0.10876769       0.44363915      -0.13181010        0
O       11.13264852       7.85777491      24.28220199      -0.58544844       1.48446806      -0.28544726        0
O       13.60103261       6.92657765      24.21971699      -0.10336177      -0.49755127      -0.00713060        0
O       14.39881768       8.66745991      22.39294755      -0.31985803      -0.59851665       1.24105597        0
Si       9.96901145       4.66535185      28.96455049      -0.68030732       0.27832200      -0.38400370        0
O       10.10758656       5.19135575      30.42477520      -0.39713701       1.93949101       0.54098706        0
O       14.64679996       9.51239302      30.31224615      -0.45390387       0.82009656       0.05610542        0
Si      12.38645231       9.90916185      19.56958905       0.00000000       0.00000000       0.00000000        0
Si      12.38645231      12.38645231      17.74175343       0.00000000       0.00000000       0.00000000        0
Si       9.90916185      12.38645231      15.91391781       0.00000000       0.00000000       0.00000000        0
O       12.86598703      13.62509754      18.65567124       0.00000000       0.00000000       0.00000000        0
O       13.62419493      10.38585264      20.51550266       1.17645760      -1.01996846      -0.70256768        0
O       11.14547693      14.36946858      20.50012670      -0.45510750      -0.00510491       0.88068403        0
O       11.90691760      11.14780708      18.65567124       0.00000000       0.00000000       0.00000000        0
O       10.38869656      11.14780708      15.00000000       0.00000000       0.00000000       0.00000000        0
O       11.14780708      12.86598703      16.82783562       0.00000000       0.00000000       0.00000000        0
O       13.62509754      11.90691760      16.82783562       0.00000000       0.00000000       0.00000000        0
O       14.38420806      13.62509754      15.00000000       0.00000000       0.00000000       0.00000000        0
Si       9.90838631       9.91137439      21.45523864       0.79217572      -0.53627764       0.68890714        0
Si      12.36810626       9.91226440      27.01274093      -0.64011522      -0.31074420      -1.28331546        0
Si      12.36323651      12.40468378      25.19908507       0.30573811       0.23388122       0.58126101        0
Si       9.91066512      12.41321528      23.32288403      -0.73987845      -1.04413377       1.34061789        0
O       12.75108682      13.60547064      26.21108270      -1.35396082      -0.02357130       1.68512044        0
O       13.61718116      10.42087699      27.90744221       2.01427293      -1.08341652       0.13140054        0
O       10.87020266      14.53315172      27.89534200      -0.52629847       0.87965211       0.10334440        0
O       11.85413621      11.10370605      26.02273291       1.34687093      -0.05885465       0.76617835        0
O       10.36544652      11.15403614      22.39597414       0.02430055      -1.66885583       1.15439046        0
O       11.18495263      12.91232122      24.19358965       0.94371659      -0.25920484      -0.10719608        0
O       13.64799847      11.97045622      24.29811515       0.05439612      -0.72291956      -0.84271103        0
O       14.38190873      13.63380080      22.37535678      -0.95779037       0.11560766      -1.57749955        0
Si       9.97384397      10.22179176      28.83741200       1.39264307       0.66794197       0.24443358        0
O       10.44670871      11.59997706      29.57158393      -1.02877654      -0.40235504      -0.92205771        0
O       14.72704424      14.67579840      30.45641708       0.26534342       0.10378082      -0.71217842        0
H       10.67422626       5.45569876      14.45582528       0.00000000       0.00000000       0.00000000        0
H        4.18951652       9.40804402      14.45582528       0.00000000       0.00000000       0.00000000        0
H        4.18951652      14.36262494      14.45582528       0.00000000       0.00000000       0.00000000        0
H        9.14409745       9.40804402      14.45582528       0.00000000       0.00000000       0.00000000        0
H        9.14409745      14.36262494      14.45582528       0.00000000       0.00000000       0.00000000        0
H       14.09867837       4.45346309      14.45582528       0.00000000       0.00000000       0.00000000        0
H       14.09867837       9.40804402      14.45582528       0.00000000       0.00000000       0.00000000        0
H        0.76506440       5.45569876      14.45582528       0.00000000       0.00000000       0.00000000        0
H        5.71964533       0.50111783      14.45582528       0.00000000       0.00000000       0.00000000        0
H        5.71964533       5.45569876      14.45582528       0.00000000       0.00000000       0.00000000        0
H       10.67422626       0.50111783      14.45582528       0.00000000       0.00000000       0.00000000        0
H       14.09867837      14.36262494      14.45582528       0.00000000       0.00000000       0.00000000        0
H        0.76506440      10.41027968      14.45582528       0.00000000       0.00000000       0.00000000        0
H        5.71964533      10.41027968      14.45582528       0.00000000       0.00000000       0.00000000        0
H       10.67422626      10.41027968      14.45582528       0.00000000       0.00000000       0.00000000        0
H        0.76506440       0.50111783      14.45582528       0.00000000       0.00000000       0.00000000        0
H        4.18951652       4.45346309      14.45582528       0.00000000       0.00000000       0.00000000        0
H        9.14409745       4.45346309      14.45582528       0.00000000       0.00000000       0.00000000        0
C        2.62373458       9.72258212      33.54428986       0.00000000       0.00000000       0.00000000        2
C        3.54605905       8.57108142      33.10584051       0.00000000       0.00000000       0.00000000        2
C        2.74871366       7.35332768      32.60379478       0.00000000       0.00000000       0.00000000        2
N        4.52471229       8.22032404      34.15324334       0.00000000       0.00000000       0.00000000        2
C        5.97545064       8.47977084      33.86081952       0.00000000       0.00000000       0.00000000        2
C        6.44386932       7.65451933      32.65976054       0.00000000       0.00000000       0.00000000        2
C        6.20018940       9.98671009      33.70077138       0.00000000       0.00000000       0.00000000        2
Si       4.04429223       7.63837690      35.73626758       0.00000000       0.00000000       0.00000000        2