nqpoint: 1      
natom:   25     
reciprocal_lattice:
- [   0.05000000,   0.00000000,   0.00000000 ] # a*
- [   0.00000000,   0.05000000,   0.00000000 ] # b*
- [   0.00000000,   0.00000000,   0.05000000 ] # c*
phonon:
- q-position: [    0.0000000,    0.0000000,    0.0000000 ]
  band:
  - # 1
    frequency:   -0.1225099373
    eigenvector:
    - # atom 1
      - [  0.03412181820852,  0.00000000000000 ]
      - [ -0.44101993244161,  0.00000000000000 ]
      - [  0.07413341839539,  0.00000000000000 ]
    - # atom 2
      - [  0.13266269800902,  0.00000000000000 ]
      - [ -0.21725831222550,  0.00000000000000 ]
      - [  0.07556650010971,  0.00000000000000 ]
    - # atom 3
      - [  0.25230631231999,  0.00000000000000 ]
      - [ -0.24900465224132,  0.00000000000000 ]
      - [  0.12949168410616,  0.00000000000000 ]
    - # atom 4
      - [ -0.02476589295333,  0.00000000000000 ]
      - [ -0.05451380763611,  0.00000000000000 ]
      - [ -0.01640998137290,  0.00000000000000 ]
    - # atom 5
      - [  0.02286879997160,  0.00000000000000 ]
      - [  0.15724504370492,  0.00000000000000 ]
      - [ -0.02903289119436,  0.00000000000000 ]
    - # atom 6
      - [  0.22905636141820,  0.00000000000000 ]
      - [  0.26859463228487,  0.00000000000000 ]
      - [  0.03148447644637,  0.00000000000000 ]
    - # atom 7
      - [  0.02292995300713,  0.00000000000000 ]
      - [  0.12337724037269,  0.00000000000000 ]
      - [ -0.02383322307621,  0.00000000000000 ]
    - # atom 8
      - [ -0.37647730255648,  0.00000000000000 ]
      - [ -0.13662455548276,  0.00000000000000 ]
      - [ -0.15541246113473,  0.00000000000000 ]
    - # atom 9
      - [  0.04616222502330,  0.00000000000000 ]
      - [ -0.16024669023838,  0.00000000000000 ]
      - [  0.04191037128382,  0.00000000000000 ]
    - # atom 10
      - [ -0.01583284540455,  0.00000000000000 ]
      - [ -0.12179573571024,  0.00000000000000 ]
      - [  0.00992125756323,  0.00000000000000 ]
    - # atom 11
      - [ -0.02081004026990,  0.00000000000000 ]
      - [ -0.15121491404303,  0.00000000000000 ]
      - [  0.01300815789757,  0.00000000000000 ]
    - # atom 12
      - [  0.07089813147711,  0.00000000000000 ]
      - [ -0.04381289034542,  0.00000000000000 ]
      - [  0.03169323312342,  0.00000000000000 ]
    - # atom 13
      - [  0.09406123454408,  0.00000000000000 ]
      - [ -0.02629289987084,  0.00000000000000 ]
      - [  0.03799369869585,  0.00000000000000 ]
    - # atom 14
      - [  0.04353866069066,  0.00000000000000 ]
      - [ -0.09286363941970,  0.00000000000000 ]
      - [  0.02915267711433,  0.00000000000000 ]
    - # atom 15
      - [  0.10899492101467,  0.00000000000000 ]
      - [ -0.10502150020071,  0.00000000000000 ]
      - [  0.05779697436166,  0.00000000000000 ]
    - # atom 16
      - [ -0.02970524072787,  0.00000000000000 ]
      - [  0.07727333536537,  0.00000000000000 ]
      - [ -0.02689043844499,  0.00000000000000 ]
    - # atom 17
      - [  0.07119885366551,  0.00000000000000 ]
      - [  0.12615684599654,  0.00000000000000 ]
      - [  0.00403159602368,  0.00000000000000 ]
    - # atom 18
      - [  0.06795464529968,  0.00000000000000 ]
      - [  0.08217665614792,  0.00000000000000 ]
      - [  0.00907600786224,  0.00000000000000 ]
    - # atom 19
      - [  0.10551221944859,  0.00000000000000 ]
      - [  0.05115440148898,  0.00000000000000 ]
      - [  0.02734536265595,  0.00000000000000 ]
    - # atom 20
      - [  0.04449227624056,  0.00000000000000 ]
      - [  0.00916453986594,  0.00000000000000 ]
      - [  0.01149411026344,  0.00000000000000 ]
    - # atom 21
      - [ -0.03426632315071,  0.00000000000000 ]
      - [  0.01055745816040,  0.00000000000000 ]
      - [ -0.01852820771618,  0.00000000000000 ]
    - # atom 22
      - [  0.01005093815116,  0.00000000000000 ]
      - [  0.08142531892866,  0.00000000000000 ]
      - [ -0.01259167795272,  0.00000000000000 ]
    - # atom 23
      - [ -0.08653592528288,  0.00000000000000 ]
      - [  0.03747465930138,  0.00000000000000 ]
      - [ -0.04502367023983,  0.00000000000000 ]
    - # atom 24
      - [ -0.06228369820458,  0.00000000000000 ]
      - [ -0.07128897496140,  0.00000000000000 ]
      - [ -0.01900499769839,  0.00000000000000 ]
    - # atom 25
      - [ -0.12018654204393,  0.00000000000000 ]
      - [ -0.05175963254580,  0.00000000000000 ]
      - [ -0.04586985446486,  0.00000000000000 ]
  - # 2
    frequency:   -0.0446828363
    eigenvector:
    - # atom 1
      - [  0.24989048028185,  0.00000000000000 ]
      - [ -0.07169760038350,  0.00000000000000 ]
      - [ -0.07624898973556,  0.00000000000000 ]
    - # atom 2
      - [  0.24335595261129,  0.00000000000000 ]
      - [ -0.10049524336424,  0.00000000000000 ]
      - [ -0.08239288758908,  0.00000000000000 ]
    - # atom 3
      - [  0.23478028532086,  0.00000000000000 ]
      - [ -0.09245726322860,  0.00000000000000 ]
      - [ -0.08372792085055,  0.00000000000000 ]
    - # atom 4
      - [  0.28937651573768,  0.00000000000000 ]
      - [ -0.13323023652787,  0.00000000000000 ]
      - [ -0.08533403511196,  0.00000000000000 ]
    - # atom 5
      - [  0.26051598306130,  0.00000000000000 ]
      - [ -0.15668283371098,  0.00000000000000 ]
      - [ -0.07743684160998,  0.00000000000000 ]
    - # atom 6
      - [  0.23027544141542,  0.00000000000000 ]
      - [ -0.16917232491140,  0.00000000000000 ]
      - [ -0.08083061003956,  0.00000000000000 ]
    - # atom 7
      - [  0.25785762873361,  0.00000000000000 ]
      - [ -0.15980835247974,  0.00000000000000 ]
      - [ -0.07758085912148,  0.00000000000000 ]
    - # atom 8
      - [  0.46462654678167,  0.00000000000000 ]
      - [ -0.17399852806026,  0.00000000000000 ]
      - [ -0.11306966236705,  0.00000000000000 ]
    - # atom 9
      - [  0.06665529997008,  0.00000000000000 ]
      - [ -0.01646543949129,  0.00000000000000 ]
      - [ -0.02306589161567,  0.00000000000000 ]
    - # atom 10
      - [  0.07418820703089,  0.00000000000000 ]
      - [ -0.02231037638319,  0.00000000000000 ]
      - [ -0.02181197566744,  0.00000000000000 ]
    - # atom 11
      - [  0.07749892149439,  0.00000000000000 ]
      - [ -0.01718156582325,  0.00000000000000 ]
      - [ -0.02008273155586,  0.00000000000000 ]
    - # atom 12
      - [  0.06499621047295,  0.00000000000000 ]
      - [ -0.03217291396721,  0.00000000000000 ]
      - [ -0.02585943427465,  0.00000000000000 ]
    - # atom 13
      - [  0.06648043195737,  0.00000000000000 ]
      - [ -0.03336072726581,  0.00000000000000 ]
      - [ -0.02576179801105,  0.00000000000000 ]
    - # atom 14
      - [  0.07372087351153,  0.00000000000000 ]
      - [ -0.02320152362715,  0.00000000000000 ]
      - [ -0.02200052552401,  0.00000000000000 ]
    - # atom 15
      - [  0.06174603731730,  0.00000000000000 ]
      - [ -0.02188858855563,  0.00000000000000 ]
      - [ -0.02534594060081,  0.00000000000000 ]
    - # atom 16
      - [  0.08131116348260,  0.00000000000000 ]
      - [ -0.04970678148738,  0.00000000000000 ]
      - [ -0.02133371059098,  0.00000000000000 ]
    - # atom 17
      - [  0.06594207961232,  0.00000000000000 ]
      - [ -0.05663023272705,  0.00000000000000 ]
      - [ -0.02324766948262,  0.00000000000000 ]
    - # atom 18
      - [  0.06727977304597,  0.00000000000000 ]
      - [ -0.04790083290515,  0.00000000000000 ]
      - [ -0.02339229565191,  0.00000000000000 ]
    - # atom 19
      - [  0.06033009775549,  0.00000000000000 ]
      - [ -0.04550659636626,  0.00000000000000 ]
      - [ -0.02437911366500,  0.00000000000000 ]
    - # atom 20
      - [  0.06805487433071,  0.00000000000000 ]
      - [ -0.04242530550663,  0.00000000000000 ]
      - [ -0.02372340712888,  0.00000000000000 ]
    - # atom 21
      - [  0.08133013422849,  0.00000000000000 ]
      - [ -0.04307993255932,  0.00000000000000 ]
      - [ -0.02176175212975,  0.00000000000000 ]
    - # atom 22
      - [  0.07405631813606,  0.00000000000000 ]
      - [ -0.05426189859520,  0.00000000000000 ]
      - [ -0.02192256938917,  0.00000000000000 ]
    - # atom 23
      - [  0.09240548012648,  0.00000000000000 ]
      - [ -0.03962060055808,  0.00000000000000 ]
      - [ -0.02276525074480,  0.00000000000000 ]
    - # atom 24
      - [  0.08852998777191,  0.00000000000000 ]
      - [ -0.02544374315709,  0.00000000000000 ]
      - [ -0.01934568977868,  0.00000000000000 ]
    - # atom 25
      - [  0.09185034134847,  0.00000000000000 ]
      - [ -0.03172753075403,  0.00000000000000 ]
      - [ -0.02077632114093,  0.00000000000000 ]
  - # 3
    frequency:    0.0290319930
    eigenvector:
    - # atom 1
      - [  0.12729157316866,  0.00000000000000 ]
      - [  0.17925278385057,  0.00000000000000 ]
      - [  0.20360423932801,  0.00000000000000 ]
    - # atom 2
      - [  0.15868834299418,  0.00000000000000 ]
      - [  0.16285321694240,  0.00000000000000 ]
      - [  0.16547673732221,  0.00000000000000 ]
    - # atom 3
      - [  0.19603662886541,  0.00000000000000 ]
      - [  0.09275753863473,  0.00000000000000 ]
      - [  0.15478452352688,  0.00000000000000 ]
    - # atom 4
      - [  0.14812405834770,  0.00000000000000 ]
      - [  0.18665533760926,  0.00000000000000 ]
      - [  0.20828659191275,  0.00000000000000 ]
    - # atom 5
      - [  0.14260079583289,  0.00000000000000 ]
      - [  0.21528417834051,  0.00000000000000 ]
      - [  0.15912281535814,  0.00000000000000 ]
    - # atom 6
      - [  0.18471389896030,  0.00000000000000 ]
      - [  0.19083973948965,  0.00000000000000 ]
      - [  0.10253120372611,  0.00000000000000 ]
    - # atom 7
      - [  0.12691284851293,  0.00000000000000 ]
      - [  0.28480122496847,  0.00000000000000 ]
      - [  0.14498633654476,  0.00000000000000 ]
    - # atom 8
      - [  0.16421236828473,  0.00000000000000 ]
      - [  0.20956651662157,  0.00000000000000 ]
      - [  0.40053100231656,  0.00000000000000 ]
    - # atom 9
      - [  0.04182281763548,  0.00000000000000 ]
      - [  0.05121008697873,  0.00000000000000 ]
      - [  0.05169900244031,  0.00000000000000 ]
    - # atom 10
      - [  0.02888442559775,  0.00000000000000 ]
      - [  0.06640215238324,  0.00000000000000 ]
      - [  0.06140903100439,  0.00000000000000 ]
    - # atom 11
      - [  0.03321193891855,  0.00000000000000 ]
      - [  0.04172208672864,  0.00000000000000 ]
      - [  0.07182267067006,  0.00000000000000 ]
    - # atom 12
      - [  0.04968926988297,  0.00000000000000 ]
      - [  0.05721450329957,  0.00000000000000 ]
      - [  0.03497513758119,  0.00000000000000 ]
    - # atom 13
      - [  0.06331760122101,  0.00000000000000 ]
      - [  0.02305208120598,  0.00000000000000 ]
      - [  0.03678640966728,  0.00000000000000 ]
    - # atom 14
      - [  0.05381820814249,  0.00000000000000 ]
      - [  0.01631968624920,  0.00000000000000 ]
      - [  0.05748755887522,  0.00000000000000 ]
    - # atom 15
      - [  0.06152021714281,  0.00000000000000 ]
      - [  0.02598225472061,  0.00000000000000 ]
      - [  0.03765779397094,  0.00000000000000 ]
    - # atom 16
      - [  0.03658680168303,  0.00000000000000 ]
      - [  0.06220139163911,  0.00000000000000 ]
      - [  0.05412891278989,  0.00000000000000 ]
    - # atom 17
      - [  0.05414688478417,  0.00000000000000 ]
      - [  0.06356741096209,  0.00000000000000 ]
      - [  0.02361349327824,  0.00000000000000 ]
    - # atom 18
      - [  0.05726994453299,  0.00000000000000 ]
      - [  0.04052464254031,  0.00000000000000 ]
      - [  0.03235777792273,  0.00000000000000 ]
    - # atom 19
      - [  0.05845944850315,  0.00000000000000 ]
      - [  0.05677503252873,  0.00000000000000 ]
      - [  0.02048442590293,  0.00000000000000 ]
    - # atom 20
      - [  0.04117697955644,  0.00000000000000 ]
      - [  0.08409942067213,  0.00000000000000 ]
      - [  0.03264601225356,  0.00000000000000 ]
    - # atom 21
      - [  0.02880831405579,  0.00000000000000 ]
      - [  0.08786143704254,  0.00000000000000 ]
      - [  0.05363152277446,  0.00000000000000 ]
    - # atom 22
      - [  0.03690034993264,  0.00000000000000 ]
      - [  0.09098971401255,  0.00000000000000 ]
      - [  0.03638252941450,  0.00000000000000 ]
    - # atom 23
      - [  0.03264378411692,  0.00000000000000 ]
      - [  0.03701507455961,  0.00000000000000 ]
      - [  0.07555892017237,  0.00000000000000 ]
    - # atom 24
      - [  0.03579792046283,  0.00000000000000 ]
      - [  0.02159750284466,  0.00000000000000 ]
      - [  0.08209064418496,  0.00000000000000 ]
    - # atom 25
      - [  0.01740364830180,  0.00000000000000 ]
      - [  0.05190156280645,  0.00000000000000 ]
      - [  0.08688489064922,  0.00000000000000 ]
  - # 4
    frequency:    0.0564658824
    eigenvector:
    - # atom 1
      - [  0.07288113928641,  0.00000000000000 ]
      - [  0.14495600682019,  0.00000000000000 ]
      - [ -0.26342486404386,  0.00000000000000 ]
    - # atom 2
      - [  0.06396812340742,  0.00000000000000 ]
      - [  0.17189959467862,  0.00000000000000 ]
      - [ -0.24257735685944,  0.00000000000000 ]
    - # atom 3
      - [  0.05339657555636,  0.00000000000000 ]
      - [  0.14646010442698,  0.00000000000000 ]
      - [ -0.26040740734972,  0.00000000000000 ]
    - # atom 4
      - [  0.02664172963552,  0.00000000000000 ]
      - [  0.21420597929317,  0.00000000000000 ]
      - [ -0.23511539938386,  0.00000000000000 ]
    - # atom 5
      - [  0.03889524410681,  0.00000000000000 ]
      - [  0.23545050004474,  0.00000000000000 ]
      - [ -0.17191956257111,  0.00000000000000 ]
    - # atom 6
      - [  0.04397980793916,  0.00000000000000 ]
      - [  0.24464534058229,  0.00000000000000 ]
      - [ -0.16114651247206,  0.00000000000000 ]
    - # atom 7
      - [  0.09238451913230,  0.00000000000000 ]
      - [  0.24668586714479,  0.00000000000000 ]
      - [ -0.16152600465891,  0.00000000000000 ]
    - # atom 8
      - [ -0.05214194642538,  0.00000000000000 ]
      - [  0.28436186726455,  0.00000000000000 ]
      - [ -0.35929795819921,  0.00000000000000 ]
    - # atom 9
      - [  0.03084460878082,  0.00000000000000 ]
      - [  0.03705713214144,  0.00000000000000 ]
      - [ -0.08104643124982,  0.00000000000000 ]
    - # atom 10
      - [  0.02298340480815,  0.00000000000000 ]
      - [  0.04731706744626,  0.00000000000000 ]
      - [ -0.07271508955377,  0.00000000000000 ]
    - # atom 11
      - [  0.01179687351132,  0.00000000000000 ]
      - [  0.03540499630920,  0.00000000000000 ]
      - [ -0.07987507537664,  0.00000000000000 ]
    - # atom 12
      - [  0.02829673532780,  0.00000000000000 ]
      - [  0.05553601732549,  0.00000000000000 ]
      - [ -0.06731926847052,  0.00000000000000 ]
    - # atom 13
      - [  0.01350538692253,  0.00000000000000 ]
      - [  0.04681918737414,  0.00000000000000 ]
      - [ -0.07156650932797,  0.00000000000000 ]
    - # atom 14
      - [  0.00696801918710,  0.00000000000000 ]
      - [  0.03674389566940,  0.00000000000000 ]
      - [ -0.07826169397617,  0.00000000000000 ]
    - # atom 15
      - [  0.02381258810881,  0.00000000000000 ]
      - [  0.03820134581792,  0.00000000000000 ]
      - [ -0.08051883850540,  0.00000000000000 ]
    - # atom 16
      - [  0.00138245310068,  0.00000000000000 ]
      - [  0.07237515847009,  0.00000000000000 ]
      - [ -0.04398524188250,  0.00000000000000 ]
    - # atom 17
      - [  0.01396945493490,  0.00000000000000 ]
      - [  0.07907174159577,  0.00000000000000 ]
      - [ -0.03689643147908,  0.00000000000000 ]
    - # atom 18
      - [  0.00240373880151,  0.00000000000000 ]
      - [  0.06814114763167,  0.00000000000000 ]
      - [ -0.04926963856191,  0.00000000000000 ]
    - # atom 19
      - [  0.02324044269890,  0.00000000000000 ]
      - [  0.06770751138686,  0.00000000000000 ]
      - [ -0.05126081965146,  0.00000000000000 ]
    - # atom 20
      - [  0.03594353051673,  0.00000000000000 ]
      - [  0.06895071137945,  0.00000000000000 ]
      - [ -0.05194504387428,  0.00000000000000 ]
    - # atom 21
      - [  0.02752553088679,  0.00000000000000 ]
      - [  0.06987543200827,  0.00000000000000 ]
      - [ -0.04932015229109,  0.00000000000000 ]
    - # atom 22
      - [  0.02848147872875,  0.00000000000000 ]
      - [  0.07823522258500,  0.00000000000000 ]
      - [ -0.03652845669184,  0.00000000000000 ]
    - # atom 23
      - [ -0.02029324698018,  0.00000000000000 ]
      - [  0.06411117128909,  0.00000000000000 ]
      - [ -0.06204729454853,  0.00000000000000 ]
    - # atom 24
      - [ -0.01333120843490,  0.00000000000000 ]
      - [  0.04296655828497,  0.00000000000000 ]
      - [ -0.07609674452665,  0.00000000000000 ]
    - # atom 25
      - [ -0.01068009320375,  0.00000000000000 ]
      - [  0.05165956787609,  0.00000000000000 ]
      - [ -0.06974837728956,  0.00000000000000 ]
  - # 5
    frequency:    0.0954070928
    eigenvector:
    - # atom 1
      - [  0.17070316813094,  0.00000000000000 ]
      - [ -0.11107869117960,  0.00000000000000 ]
      - [ -0.10565468538762,  0.00000000000000 ]
    - # atom 2
      - [  0.04209569282124,  0.00000000000000 ]
      - [  0.00843727359887,  0.00000000000000 ]
      - [  0.07376002448446,  0.00000000000000 ]
    - # atom 3
      - [ -0.11028278039332,  0.00000000000000 ]
      - [  0.19080507187238,  0.00000000000000 ]
      - [  0.06983774778134,  0.00000000000000 ]
    - # atom 4
      - [  0.02697403399901,  0.00000000000000 ]
      - [  0.03863029304743,  0.00000000000000 ]
      - [  0.03928843217069,  0.00000000000000 ]
    - # atom 5
      - [  0.03849088098486,  0.00000000000000 ]
      - [ -0.01912440009706,  0.00000000000000 ]
      - [  0.24483812545030,  0.00000000000000 ]
    - # atom 6
      - [ -0.08385589342623,  0.00000000000000 ]
      - [  0.08452336713516,  0.00000000000000 ]
      - [  0.45643276649326,  0.00000000000000 ]
    - # atom 7
      - [  0.20418850622190,  0.00000000000000 ]
      - [ -0.22591803044135,  0.00000000000000 ]
      - [  0.31374175972506,  0.00000000000000 ]
    - # atom 8
      - [ -0.01336297482159,  0.00000000000000 ]
      - [  0.19373668362894,  0.00000000000000 ]
      - [ -0.35421143148295,  0.00000000000000 ]
    - # atom 9
      - [  0.05454029418399,  0.00000000000000 ]
      - [ -0.04105263107801,  0.00000000000000 ]
      - [ -0.01605935092173,  0.00000000000000 ]
    - # atom 10
      - [  0.08132652576315,  0.00000000000000 ]
      - [ -0.07027060150552,  0.00000000000000 ]
      - [ -0.03090648037593,  0.00000000000000 ]
    - # atom 11
      - [  0.04086138970482,  0.00000000000000 ]
      - [ -0.01181446144380,  0.00000000000000 ]
      - [ -0.08329442774600,  0.00000000000000 ]
    - # atom 12
      - [  0.02202604645012,  0.00000000000000 ]
      - [ -0.01882396328744,  0.00000000000000 ]
      - [  0.07291174477383,  0.00000000000000 ]
    - # atom 13
      - [ -0.05877842009050,  0.00000000000000 ]
      - [  0.07990292418643,  0.00000000000000 ]
      - [  0.05732007589364,  0.00000000000000 ]
    - # atom 14
      - [ -0.04244365988120,  0.00000000000000 ]
      - [  0.07791693493845,  0.00000000000000 ]
      - [ -0.03046993102474,  0.00000000000000 ]
    - # atom 15
      - [ -0.02777037909695,  0.00000000000000 ]
      - [  0.04764389809080,  0.00000000000000 ]
      - [  0.03356434704583,  0.00000000000000 ]
    - # atom 16
      - [  0.00466376960771,  0.00000000000000 ]
      - [  0.00481146586044,  0.00000000000000 ]
      - [  0.05619949264473,  0.00000000000000 ]
    - # atom 17
      - [ -0.02359233369022,  0.00000000000000 ]
      - [  0.01612394614956,  0.00000000000000 ]
      - [  0.17335678441726,  0.00000000000000 ]
    - # atom 18
      - [ -0.05894320059679,  0.00000000000000 ]
      - [  0.06747114173160,  0.00000000000000 ]
      - [  0.11795105456772,  0.00000000000000 ]
    - # atom 19
      - [ -0.01689867069360,  0.00000000000000 ]
      - [  0.01200031517881,  0.00000000000000 ]
      - [  0.15336818853300,  0.00000000000000 ]
    - # atom 20
      - [  0.06581506348233,  0.00000000000000 ]
      - [ -0.07717589889782,  0.00000000000000 ]
      - [  0.11144096277355,  0.00000000000000 ]
    - # atom 21
      - [  0.08537314362651,  0.00000000000000 ]
      - [ -0.08753817462067,  0.00000000000000 ]
      - [  0.04665060391705,  0.00000000000000 ]
    - # atom 22
      - [  0.06251954635651,  0.00000000000000 ]
      - [ -0.07708769569931,  0.00000000000000 ]
      - [  0.13109148605782,  0.00000000000000 ]
    - # atom 23
      - [ -0.03110951493429,  0.00000000000000 ]
      - [  0.06852667966034,  0.00000000000000 ]
      - [ -0.05247203941481,  0.00000000000000 ]
    - # atom 24
      - [ -0.02608497319937,  0.00000000000000 ]
      - [  0.07250167465554,  0.00000000000000 ]
      - [ -0.10618656216587,  0.00000000000000 ]
    - # atom 25
      - [  0.04134447711489,  0.00000000000000 ]
      - [ -0.00879548016840,  0.00000000000000 ]
      - [ -0.10747235322177,  0.00000000000000 ]
  - # 6
    frequency:    0.1118069195
    eigenvector:
    - # atom 1
      - [  0.16795361169543,  0.00000000000000 ]
      - [  0.04749862497519,  0.00000000000000 ]
      - [ -0.27761141034306,  0.00000000000000 ]
    - # atom 2
      - [  0.04911889440509,  0.00000000000000 ]
      - [ -0.05074590472797,  0.00000000000000 ]
      - [ -0.20360862669327,  0.00000000000000 ]
    - # atom 3
      - [ -0.09134165680256,  0.00000000000000 ]
      - [ -0.23348121055786,  0.00000000000000 ]
      - [ -0.36762053295882,  0.00000000000000 ]
    - # atom 4
      - [ -0.03515386567882,  0.00000000000000 ]
      - [ -0.06848294419850,  0.00000000000000 ]
      - [  0.06011641182292,  0.00000000000000 ]
    - # atom 5
      - [  0.00195260683478,  0.00000000000000 ]
      - [  0.00546261719005,  0.00000000000000 ]
      - [  0.20516351775386,  0.00000000000000 ]
    - # atom 6
      - [ -0.07089410196169,  0.00000000000000 ]
      - [ -0.09029441018017,  0.00000000000000 ]
      - [  0.10134258371095,  0.00000000000000 ]
    - # atom 7
      - [  0.20792236891409,  0.00000000000000 ]
      - [  0.20938331207979,  0.00000000000000 ]
      - [  0.22074359686965,  0.00000000000000 ]
    - # atom 8
      - [ -0.24633557797962,  0.00000000000000 ]
      - [ -0.23461939042148,  0.00000000000000 ]
      - [  0.28123666713654,  0.00000000000000 ]
    - # atom 9
      - [  0.06961261995514,  0.00000000000000 ]
      - [  0.01959740882128,  0.00000000000000 ]
      - [ -0.13517195823171,  0.00000000000000 ]
    - # atom 10
      - [  0.07752969928325,  0.00000000000000 ]
      - [  0.05189597866207,  0.00000000000000 ]
      - [ -0.04607239668225,  0.00000000000000 ]
    - # atom 11
      - [  0.02562509607642,  0.00000000000000 ]
      - [ -0.00850088228463,  0.00000000000000 ]
      - [ -0.07805535140356,  0.00000000000000 ]
    - # atom 12
      - [  0.03897992446539,  0.00000000000000 ]
      - [  0.00801826709478,  0.00000000000000 ]
      - [ -0.06611618585533,  0.00000000000000 ]
    - # atom 13
      - [ -0.05130248579974,  0.00000000000000 ]
      - [ -0.08816287635896,  0.00000000000000 ]
      - [ -0.09176780833654,  0.00000000000000 ]
    - # atom 14
      - [ -0.05166754941602,  0.00000000000000 ]
      - [ -0.09167527619152,  0.00000000000000 ]
      - [ -0.10350613319230,  0.00000000000000 ]
    - # atom 15
      - [ -0.00655843083222,  0.00000000000000 ]
      - [ -0.06281512663738,  0.00000000000000 ]
      - [ -0.16162896030749,  0.00000000000000 ]
    - # atom 16
      - [ -0.02149032325429,  0.00000000000000 ]
      - [ -0.00654565458831,  0.00000000000000 ]
      - [  0.11502257987066,  0.00000000000000 ]
    - # atom 17
      - [ -0.01781813463954,  0.00000000000000 ]
      - [ -0.01414921765315,  0.00000000000000 ]
      - [  0.06780838852318,  0.00000000000000 ]
    - # atom 18
      - [ -0.06286253589075,  0.00000000000000 ]
      - [ -0.06901132725712,  0.00000000000000 ]
      - [  0.02231207492681,  0.00000000000000 ]
    - # atom 19
      - [  0.00362969123445,  0.00000000000000 ]
      - [ -0.01561071300508,  0.00000000000000 ]
      - [ -0.02348636240121,  0.00000000000000 ]
    - # atom 20
      - [  0.08251199690160,  0.00000000000000 ]
      - [  0.07123218349821,  0.00000000000000 ]
      - [  0.01053508312218,  0.00000000000000 ]
    - # atom 21
      - [  0.07764386802169,  0.00000000000000 ]
      - [  0.08155934533832,  0.00000000000000 ]
      - [  0.08269014114637,  0.00000000000000 ]
    - # atom 22
      - [  0.06567421092012,  0.00000000000000 ]
      - [  0.07413835788205,  0.00000000000000 ]
      - [  0.10285172263126,  0.00000000000000 ]
    - # atom 23
      - [ -0.08790206131957,  0.00000000000000 ]
      - [ -0.06909125689118,  0.00000000000000 ]
      - [  0.10988066168799,  0.00000000000000 ]
    - # atom 24
      - [ -0.07211863841228,  0.00000000000000 ]
      - [ -0.08276117202658,  0.00000000000000 ]
      - [ -0.00010748800257,  0.00000000000000 ]
    - # atom 25
      - [ -0.01175293938720,  0.00000000000000 ]
      - [ -0.00336828605156,  0.00000000000000 ]
      - [  0.08311903746594,  0.00000000000000 ]
  - # 7
    frequency:    0.4625530609
    eigenvector:
    - # atom 1
      - [  0.34406837385016,  0.00000000000000 ]
      - [ -0.17007542296456,  0.00000000000000 ]
      - [ -0.25966154371659,  0.00000000000000 ]
    - # atom 2
      - [  0.01899724064196,  0.00000000000000 ]
      - [ -0.04595107434949,  0.00000000000000 ]
      - [  0.10650625251286,  0.00000000000000 ]
    - # atom 3
      - [ -0.34213990794792,  0.00000000000000 ]
      - [  0.27181083962461,  0.00000000000000 ]
      - [  0.05290673559738,  0.00000000000000 ]
    - # atom 4
      - [  0.01969077051385,  0.00000000000000 ]
      - [ -0.05128262808790,  0.00000000000000 ]
      - [  0.13324645283898,  0.00000000000000 ]
    - # atom 5
      - [  0.00953779013758,  0.00000000000000 ]
      - [  0.04004872915833,  0.00000000000000 ]
      - [ -0.10441817072996,  0.00000000000000 ]
    - # atom 6
      - [  0.20858144115687,  0.00000000000000 ]
      - [  0.10727839250987,  0.00000000000000 ]
      - [ -0.09699676752117,  0.00000000000000 ]
    - # atom 7
      - [ -0.21961109408809,  0.00000000000000 ]
      - [ -0.00905999021035,  0.00000000000000 ]
      - [ -0.14807677083165,  0.00000000000000 ]
    - # atom 8
      - [  0.01028312320705,  0.00000000000000 ]
      - [ -0.08950999064858,  0.00000000000000 ]
      - [  0.22852803057917,  0.00000000000000 ]
    - # atom 9
      - [  0.09025747878839,  0.00000000000000 ]
      - [ -0.04806237071019,  0.00000000000000 ]
      - [ -0.06080707398794,  0.00000000000000 ]
    - # atom 10
      - [  0.18175771399057,  0.00000000000000 ]
      - [ -0.12612208659438,  0.00000000000000 ]
      - [ -0.06634243822859,  0.00000000000000 ]
    - # atom 11
      - [  0.09947367579611,  0.00000000000000 ]
      - [  0.00506853605598,  0.00000000000000 ]
      - [ -0.17695605737439,  0.00000000000000 ]
    - # atom 12
      - [  0.01842897859187,  0.00000000000000 ]
      - [ -0.05684427450184,  0.00000000000000 ]
      - [  0.12746664124241,  0.00000000000000 ]
    - # atom 13
      - [ -0.15885554601004,  0.00000000000000 ]
      - [  0.14465602574376,  0.00000000000000 ]
      - [  0.10371894232045,  0.00000000000000 ]
    - # atom 14
      - [ -0.14774401989918,  0.00000000000000 ]
      - [  0.10755998297860,  0.00000000000000 ]
      - [ -0.09849578859870,  0.00000000000000 ]
    - # atom 15
      - [ -0.06428081499068,  0.00000000000000 ]
      - [  0.04850587093131,  0.00000000000000 ]
      - [  0.02987699758111,  0.00000000000000 ]
    - # atom 16
      - [  0.00335711809115,  0.00000000000000 ]
      - [  0.02701243631624,  0.00000000000000 ]
      - [ -0.06788664345489,  0.00000000000000 ]
    - # atom 17
      - [  0.06208875335008,  0.00000000000000 ]
      - [  0.05806552011971,  0.00000000000000 ]
      - [ -0.05805879673046,  0.00000000000000 ]
    - # atom 18
      - [  0.08621921439246,  0.00000000000000 ]
      - [  0.03662841273199,  0.00000000000000 ]
      - [ -0.02124010596486,  0.00000000000000 ]
    - # atom 19
      - [  0.07132621464949,  0.00000000000000 ]
      - [  0.01530869076002,  0.00000000000000 ]
      - [ -0.00297156463896,  0.00000000000000 ]
    - # atom 20
      - [ -0.02314296030089,  0.00000000000000 ]
      - [ -0.04219513033387,  0.00000000000000 ]
      - [  0.00345653519667,  0.00000000000000 ]
    - # atom 21
      - [ -0.14981058375711,  0.00000000000000 ]
      - [ -0.03943904148276,  0.00000000000000 ]
      - [ -0.04585446050497,  0.00000000000000 ]
    - # atom 22
      - [ -0.06382196810985,  0.00000000000000 ]
      - [  0.06330646493321,  0.00000000000000 ]
      - [ -0.09807215193164,  0.00000000000000 ]
    - # atom 23
      - [ -0.04154052343455,  0.00000000000000 ]
      - [ -0.06824002224246,  0.00000000000000 ]
      - [  0.11580734162091,  0.00000000000000 ]
    - # atom 24
      - [ -0.04621916155874,  0.00000000000000 ]
      - [  0.00943389547103,  0.00000000000000 ]
      - [ -0.04537747663723,  0.00000000000000 ]
    - # atom 25
      - [  0.09741029492320,  0.00000000000000 ]
      - [  0.00938496416003,  0.00000000000000 ]
      - [  0.05571935373040,  0.00000000000000 ]
  - # 8
    frequency:    1.4818009741
    eigenvector:
    - # atom 1
      - [ -0.07527667054056,  0.00000000000000 ]
      - [ -0.02235132106197,  0.00000000000000 ]
      - [  0.09037534603986,  0.00000000000000 ]
    - # atom 2
      - [ -0.00288095220365,  0.00000000000000 ]
      - [ -0.00656494550443,  0.00000000000000 ]
      - [  0.02725257751725,  0.00000000000000 ]
    - # atom 3
      - [  0.09079291695694,  0.00000000000000 ]
      - [  0.00954688787734,  0.00000000000000 ]
      - [  0.08634188167933,  0.00000000000000 ]
    - # atom 4
      - [  0.00449183773365,  0.00000000000000 ]
      - [  0.00781141720398,  0.00000000000000 ]
      - [ -0.04034184683578,  0.00000000000000 ]
    - # atom 5
      - [  0.00597770651326,  0.00000000000000 ]
      - [ -0.00878581806575,  0.00000000000000 ]