25
Lattice="25.605137788558736 0.0 0.0 0.0 24.94760060518851 0.0 0.0 0.0 24.018216286516797" Properties=species:S:1:pos:R:3:forces:R:3 pbc="T T T"
C       10.52069532      11.88455001      10.97139204       0.00764270       0.05153048      -0.01981604
C       11.62164003      11.42563056      11.92967380      -0.01039242       0.01888521      -0.01473307
C       11.00735866      10.82616319      13.18963145      -0.03401081       0.02055032      -0.02545651
N       12.56442450      12.49704323      12.23492279       0.01020970      -0.00431705       0.00308167
C       13.98209746      12.14357779      12.11582343       0.00356472      -0.03389957       0.01181488
C       14.35476146      10.96933045      13.01266230      -0.02941217      -0.05011491       0.00428940
C       14.35605884      11.84247125      10.66662385       0.00929111      -0.02883370       0.01223889
Si      12.07972396      14.05524880      12.76904346       0.03942093       0.00124227       0.01337950
H        9.92744399      11.01238562      10.66943135      -0.00868968       0.06715323      -0.03285840
H       10.94517119      12.33800009      10.06871223       0.02509325       0.05064944      -0.01205359
H        9.84202639      12.61079120      11.43891545       0.01941099       0.06192239      -0.01887506
H       12.20949364      10.64597008      11.42811644      -0.02302120       0.01078480      -0.01694281
H       11.77987009      10.43688854      13.86185765      -0.04812333      -0.00241923      -0.02253715
H       10.41439523      11.56781023      13.74021244      -0.02258397       0.02830191      -0.02359423
H       10.34488386       9.99838084      12.90816238      -0.04958125       0.03751316      -0.03870358
H       14.56225240      13.02033126      12.44403251       0.01977221      -0.04943657       0.02467458
H       15.44151997      10.82603801      12.98501540      -0.03227628      -0.07337196       0.01217147
H       14.06346621      11.14842554      14.05359163      -0.03433922      -0.05327841       0.00345475
H       13.88615842      10.03762989      12.67052438      -0.04668384      -0.03686252      -0.00814807
H       13.87889336      10.91799345      10.31763527      -0.00773085      -0.01535834      -0.00018634
H       14.06040459      12.65938871       9.99853465       0.03258784      -0.01638272       0.01715840
H       15.44194806      11.71265109      10.58918022       0.00714089      -0.05159358       0.02023202
H       13.16548805      14.62627113      13.60550975       0.04493857      -0.02974428       0.02737489
H       10.84304315      13.95031774      13.58643303       0.03055903       0.02034124       0.00242216
H       11.84721739      14.91229105      11.57780617       0.06748457       0.01714980       0.01934362
25
Lattice="25.605137788558736 0.0 0.0 0.0 24.94760060518851 0.0 0.0 0.0 24.018216286516797" Properties=species:S:1:pos:R:3:forces:R:3 pbc="T T T"
C       10.52039166      11.89126281      10.97028503       0.00764270       0.05153048      -0.01981604
C       11.62044394      11.42797020      11.92744172      -0.01039242       0.01888521      -0.01473307
C       11.00469002      10.82717582      13.18600427      -0.03401081       0.02055032      -0.02545651
N       12.56550333      12.49659302      12.23506675       0.01020970      -0.00431705       0.00308167
C       13.98238805      12.13936220      12.11857078       0.00356472      -0.03389957       0.01181488
C       14.34996438      10.96238035      13.01372963      -0.02941217      -0.05011491       0.00428940
C       14.35887607      11.84008881      10.66968167       0.00929111      -0.02883370       0.01223889
Si      12.08409776      14.05621622      12.76787338       0.03942093       0.00124227       0.01337950
H        9.92551442      11.02094820      10.66632128      -0.00868968       0.06715323      -0.03285840
H       10.94563289      12.34605596      10.06867180       0.02509325       0.05064944      -0.01205359
H        9.84306111      12.61760530      11.43957014       0.01941099       0.06192239      -0.01887506
H       12.20668009      10.64817079      11.42422022      -0.02302120       0.01078480      -0.01694281
H       11.77602245      10.43346476      13.85682231      -0.04812333      -0.00241923      -0.02253715
H       10.41456739      11.56935954      13.73882157      -0.02258397       0.02830191      -0.02359423
H       10.33930052      10.00250323      12.90262237      -0.04958125       0.03751316      -0.03870358
H       14.56415139      13.01381690      12.44979571       0.01977221      -0.04943657       0.02467458
H       15.43643168      10.81674191      12.98863890      -0.03227628      -0.07337196       0.01217147
H       14.05633586      11.13983043      14.05423696      -0.03433922      -0.05327841       0.00345475
H       13.88039083      10.03248370      12.66821729      -0.04668384      -0.03686252      -0.00814807
H       13.87893464      10.91842149      10.31738603      -0.00773085      -0.01535834      -0.00018634
H       14.06814840      12.65961498      10.00282100       0.03258784      -0.01638272       0.01715840
H       15.44434319      11.70611586      10.59459271       0.00714089      -0.05159358       0.02023202
H       13.17387062      14.62927304      13.59733773       0.04493857      -0.02974428       0.02737489
H       10.85175650      13.95285653      13.59171936       0.03055903       0.02034124       0.00242216
H       11.84563587      14.91064698      11.57607671       0.06748457       0.01714980       0.01934362
25
Lattice="25.605137788558736 0.0 0.0 0.0 24.94760060518851 0.0 0.0 0.0 24.018216286516797" Properties=species:S:1:pos:R:3:forces:R:3 pbc="T T T"
C       10.52008801      11.89797561      10.96917802       0.00764270       0.05153048      -0.01981604
C       11.61924784      11.43030985      11.92520964      -0.01039242       0.01888521      -0.01473307
C       11.00202139      10.82818844      13.18237708      -0.03401081       0.02055032      -0.02545651
N       12.56658216      12.49614282      12.23521071       0.01020970      -0.00431705       0.00308167
C       13.98267863      12.13514660      12.12131813       0.00356472      -0.03389957       0.01181488
C       14.34516730      10.95543025      13.01479697      -0.02941217      -0.05011491       0.00428940
C       14.36169329      11.83770637      10.67273949       0.00929111      -0.02883370       0.01223889
Si      12.08847156      14.05718365      12.76670329       0.03942093       0.00124227       0.01337950
H        9.92358485      11.02951077      10.66321120      -0.00868968       0.06715323      -0.03285840
H       10.94609459      12.35411184      10.06863136       0.02509325       0.05064944      -0.01205359
H        9.84409584      12.62441939      11.44022483       0.01941099       0.06192239      -0.01887506
H       12.20386654      10.65037149      11.42032401      -0.02302120       0.01078480      -0.01694281
H       11.77217480      10.43004098      13.85178698      -0.04812333      -0.00241923      -0.02253715
H       10.41473955      11.57090886      13.73743071      -0.02258397       0.02830191      -0.02359423
H       10.33371719      10.00662562      12.89708237      -0.04958125       0.03751316      -0.03870358
H       14.56605038      13.00730254      12.45555892       0.01977221      -0.04943657       0.02467458
H       15.43134338      10.80744582      12.99226239      -0.03227628      -0.07337196       0.01217147
H       14.04920551      11.13123532      14.05488230      -0.03433922      -0.05327841       0.00345475
H       13.87462323      10.02733751      12.66591020      -0.04668384      -0.03686252      -0.00814807
H       13.87897591      10.91884952      10.31713679      -0.00773085      -0.01535834      -0.00018634
H       14.07589221      12.65984124      10.00710735       0.03258784      -0.01638272       0.01715840
H       15.44673833      11.69958063      10.60000520       0.00714089      -0.05159358       0.02023202
H       13.18225319      14.63227495      13.58916572       0.04493857      -0.02974428       0.02737489
H       10.86046986      13.95539531      13.59700570       0.03055903       0.02034124       0.00242216
H       11.84405435      14.90900292      11.57434725       0.06748457       0.01714980       0.01934362
25
Lattice="25.605137788558736 0.0 0.0 0.0 24.94760060518851 0.0 0.0 0.0 24.018216286516797" Properties=species:S:1:pos:R:3:forces:R:3 pbc="T T T"
C       10.51978436      11.90468841      10.96807100       0.00764270       0.05153048      -0.01981604
C       11.61805174      11.43264949      11.92297755      -0.01039242       0.01888521      -0.01473307
C       10.99935276      10.82920106      13.17874989      -0.03401081       0.02055032      -0.02545651
N       12.56766099      12.49569262      12.23535467       0.01020970      -0.00431705       0.00308167
C       13.98296922      12.13093100      12.12406548       0.00356472      -0.03389957       0.01181488
C       14.34037022      10.94848014      13.01586431      -0.02941217      -0.05011491       0.00428940
C       14.36451052      11.83532393      10.67579731       0.00929111      -0.02883370       0.01223889
Si      12.09284536      14.05815107      12.76553320       0.03942093       0.00124227       0.01337950
H        9.92165528      11.03807335      10.66010113      -0.00868968       0.06715323      -0.03285840
H       10.94655630      12.36216772      10.06859093       0.02509325       0.05064944      -0.01205359
H        9.84513056      12.63123348      11.44087952       0.01941099       0.06192239      -0.01887506
H       12.20105300      10.65257219      11.41642780      -0.02302120       0.01078480      -0.01694281
H       11.76832715      10.42661720      13.84675164      -0.04812333      -0.00241923      -0.02253715
H       10.41491171      11.57245818      13.73603984      -0.02258397       0.02830191      -0.02359423
H       10.32813385      10.01074800      12.89154237      -0.04958125       0.03751316      -0.03870358
H       14.56794937      13.00078817      12.46132212       0.01977221      -0.04943657       0.02467458
H       15.42625508      10.79814973      12.99588588      -0.03227628      -0.07337196       0.01217147
H       14.04207515      11.12264021      14.05552763      -0.03433922      -0.05327841       0.00345475
H       13.86885564      10.02219131      12.66360311      -0.04668384      -0.03686252      -0.00814807
H       13.87901719      10.91927756      10.31688755      -0.00773085      -0.01535834      -0.00018634
H       14.08363602      12.66006751      10.01139370       0.03258784      -0.01638272       0.01715840
H       15.44913346      11.69304540      10.60541769       0.00714089      -0.05159358       0.02023202
H       13.19063577      14.63527685      13.58099370       0.04493857      -0.02974428       0.02737489
H       10.86918322      13.95793410      13.60229203       0.03055903       0.02034124       0.00242216
H       11.84247282      14.90735886      11.57261779       0.06748457       0.01714980       0.01934362
25
Lattice="25.605137788558736 0.0 0.0 0.0 24.94760060518851 0.0 0.0 0.0 24.018216286516797" Properties=species:S:1:pos:R:3:forces:R:3 pbc="T T T"
C       10.51948071      11.91140121      10.96696399       0.00764270       0.05153048      -0.01981604
C       11.61685565      11.43498914      11.92074547      -0.01039242       0.01888521      -0.01473307
C       10.99668413      10.83021369      13.17512271      -0.03401081       0.02055032      -0.02545651
N       12.56873982      12.49524241      12.23549863       0.01020970      -0.00431705       0.00308167
C       13.98325980      12.12671540      12.12681284       0.00356472      -0.03389957       0.01181488
C       14.33557314      10.94153004      13.01693165      -0.02941217      -0.05011491       0.00428940
C       14.36732775      11.83294150      10.67885513       0.00929111      -0.02883370       0.01223889
Si      12.09721916      14.05911850      12.76436311       0.03942093       0.00124227       0.01337950
H        9.91972571      11.04663593      10.65699106      -0.00868968       0.06715323      -0.03285840
H       10.94701800      12.37022360      10.06855049       0.02509325       0.05064944      -0.01205359
H        9.84616529      12.63804758      11.44153421       0.01941099       0.06192239      -0.01887506
H       12.19823945      10.65477290      11.41253159      -0.02302120       0.01078480      -0.01694281
H       11.76447951      10.42319342      13.84171631      -0.04812333      -0.00241923      -0.02253715
H       10.41508387      11.57400749      13.73464897      -0.02258397       0.02830191      -0.02359423
H       10.32255051      10.01487039      12.88600236      -0.04958125       0.03751316      -0.03870358
H       14.56984836      12.99427381      12.46708533       0.01977221      -0.04943657       0.02467458
H       15.42116679      10.78885363      12.99950937      -0.03227628      -0.07337196       0.01217147
H       14.03494480      11.11404510      14.05617296      -0.03433922      -0.05327841       0.00345475
H       13.86308805      10.01704512      12.66129602      -0.04668384      -0.03686252      -0.00814807
H       13.87905847      10.91970559      10.31663831      -0.00773085      -0.01535834      -0.00018634
H       14.09137983      12.66029377      10.01568005       0.03258784      -0.01638272       0.01715840
H       15.45152860      11.68651018      10.61083018       0.00714089      -0.05159358       0.02023202
H       13.19901834      14.63827876      13.57282169       0.04493857      -0.02974428       0.02737489
H       10.87789657      13.96047289      13.60757837       0.03055903       0.02034124       0.00242216
H       11.84089130      14.90571479      11.57088833       0.06748457       0.01714980       0.01934362
25
Lattice="25.605137788558736 0.0 0.0 0.0 24.94760060518851 0.0 0.0 0.0 24.018216286516797" Properties=species:S:1:pos:R:3:forces:R:3 pbc="T T T"
C       10.51917706      11.91811400      10.96585698       0.00764270       0.05153048      -0.01981604
C       11.61565955      11.43732878      11.91851339      -0.01039242       0.01888521      -0.01473307
C       10.99401549      10.83122631      13.17149552      -0.03401081       0.02055032      -0.02545651
N       12.56981865      12.49479221      12.23564259       0.01020970      -0.00431705       0.00308167
C       13.98355039      12.12249981      12.12956019       0.00356472      -0.03389957       0.01181488
C       14.33077605      10.93457994      13.01799899      -0.02941217      -0.05011491       0.00428940
C       14.37014498      11.83055906      10.68191295       0.00929111      -0.02883370       0.01223889
Si      12.10159297      14.06008592      12.76319302       0.03942093       0.00124227       0.01337950
H        9.91779614      11.05519851      10.65388098      -0.00868968       0.06715323      -0.03285840
H       10.94747971      12.37827948      10.06851006       0.02509325       0.05064944      -0.01205359
H        9.84720001      12.64486167      11.44218890       0.01941099       0.06192239      -0.01887506
H       12.19542591      10.65697360      11.40863538      -0.02302120       0.01078480      -0.01694281
H       11.76063186      10.41976964      13.83668097      -0.04812333      -0.00241923      -0.02253715
H       10.41525604      11.57555681      13.73325810      -0.02258397       0.02830191      -0.02359423
H       10.31696717      10.01899278      12.88046236      -0.04958125       0.03751316      -0.03870358
H       14.57174735      12.98775945      12.47284853       0.01977221      -0.04943657       0.02467458
H       15.41607849      10.77955754      13.00313287      -0.03227628      -0.07337196       0.01217147
H       14.02781445      11.10544998      14.05681830      -0.03433922      -0.05327841       0.00345475
H       13.85732045      10.01189893      12.65898893      -0.04668384      -0.03686252      -0.00814807
H       13.87909975      10.92013363      10.31638907      -0.00773085      -0.01535834      -0.00018634
H       14.09912364      12.66052004      10.01996640       0.03258784      -0.01638272       0.01715840
H       15.45392373      11.67997495      10.61624267       0.00714089      -0.05159358       0.02023202
H       13.20740091      14.64128067      13.56464968       0.04493857      -0.02974428       0.02737489
H       10.88660993      13.96301167      13.61286470       0.03055903       0.02034124       0.00242216
H       11.83930978      14.90407073      11.56915887       0.06748457       0.01714980       0.01934362
25
Lattice="25.605137788558736 0.0 0.0 0.0 24.94760060518851 0.0 0.0 0.0 24.018216286516797" Properties=species:S:1:pos:R:3:forces:R:3 pbc="T T T"
C       10.51887341      11.92482680      10.96474997       0.00764270       0.05153048      -0.01981604
C       11.61446345      11.43966842      11.91628131      -0.01039242       0.01888521      -0.01473307
C       10.99134686      10.83223893      13.16786833      -0.03401081       0.02055032      -0.02545651
N       12.57089748      12.49434201      12.23578655       0.01020970      -0.00431705       0.00308167
C       13.98384097      12.11828421      12.13230754       0.00356472      -0.03389957       0.01181488
C       14.32597897      10.92762984      13.01906632      -0.02941217      -0.05011491       0.00428940
C       14.37296221      11.82817662      10.68497077       0.00929111      -0.02883370       0.01223889
Si      12.10596677      14.06105335      12.76202294       0.03942093       0.00124227       0.01337950
H        9.91586657      11.06376109      10.65077091      -0.00868968       0.06715323      -0.03285840
H       10.94794141      12.38633535      10.06846962       0.02509325       0.05064944      -0.01205359
H        9.84823474      12.65167577      11.44284359       0.01941099       0.06192239      -0.01887506
H       12.19261236      10.65917431      11.40473916      -0.02302120       0.01078480      -0.01694281
H       11.75678421      10.41634586      13.83164564      -0.04812333      -0.00241923      -0.02253715
H       10.41542820      11.57710612      13.73186724      -0.02258397       0.02830191      -0.02359423
H       10.31138384      10.02311516      12.87492236      -0.04958125       0.03751316      -0.03870358
H       14.57364634      12.98124508      12.47861173       0.01977221      -0.04943657       0.02467458
H       15.41099020      10.77026145      13.00675636      -0.03227628      -0.07337196       0.01217147
H       14.02068410      11.09685487      14.05746363      -0.03433922      -0.05327841       0.00345475
H       13.85155286      10.00675274      12.65668184      -0.04668384      -0.03686252      -0.00814807
H       13.87914103      10.92056166      10.31613983      -0.00773085      -0.01535834      -0.00018634
H       14.10686745      12.66074630      10.02425275       0.03258784      -0.01638272       0.01715840
H       15.45631886      11.67343972      10.62165517       0.00714089      -0.05159358       0.02023202
H       13.21578349      14.64428257      13.55647766       0.04493857      -0.02974428       0.02737489
H       10.89532329      13.96555046      13.61815104       0.03055903       0.02034124       0.00242216
H       11.83772825      14.90242666      11.56742941       0.06748457       0.01714980       0.01934362
25
Lattice="25.605137788558736 0.0 0.0 0.0 24.94760060518851 0.0 0.0 0.0 24.018216286516797" Properties=species:S:1:pos:R:3:forces:R:3 pbc="T T T"
C       10.51856976      11.93153960      10.96364295       0.00764270       0.05153048      -0.01981604
C       11.61326736      11.44200807      11.91404923      -0.01039242       0.01888521      -0.01473307
C       10.98867823      10.83325156      13.16424115      -0.03401081       0.02055032      -0.02545651
N       12.57197631      12.49389181      12.23593051       0.01020970      -0.00431705       0.00308167
C       13.98413156      12.11406861      12.13505489       0.00356472      -0.03389957       0.01181488
C       14.32118189      10.92067974      13.02013366      -0.02941217      -0.05011491       0.00428940
C       14.37577943      11.82579419      10.68802859       0.00929111      -0.02883370       0.01223889
Si      12.11034057      14.06202077      12.76085285       0.03942093       0.00124227       0.01337950
H        9.91393700      11.07232367      10.64766084      -0.00868968       0.06715323      -0.03285840
H       10.94840311      12.39439123      10.06842919       0.02509325       0.05064944      -0.01205359
H        9.84926947      12.65848986      11.44349827       0.01941099       0.06192239      -0.01887506
H       12.18979881      10.66137501      11.40084295      -0.02302120       0.01078480      -0.01694281
H       11.75293657      10.41292208      13.82661030      -0.04812333      -0.00241923      -0.02253715
H       10.41560036      11.57865544      13.73047637      -0.02258397       0.02830191      -0.02359423
H       10.30580050      10.02723755      12.86938235      -0.04958125       0.03751316      -0.03870358
H       14.57554532      12.97473072      12.48437494       0.01977221      -0.04943657       0.02467458
H       15.40590190      10.76096536      13.01037985      -0.03227628      -0.07337196       0.01217147
H       14.01355375      11.08825976      14.05810896      -0.03433922      -0.05327841       0.00345475
H       13.84578527      10.00160654      12.65437475      -0.04668384      -0.03686252      -0.00814807
H       13.87918230      10.92098970      10.31589059      -0.00773085      -0.01535834      -0.00018634
H       14.11461126      12.66097257      10.02853910       0.03258784      -0.01638272       0.01715840
H       15.45871400      11.66690449      10.62706766       0.00714089      -0.05159358       0.02023202
H       13.22416606      14.64728448      13.54830565       0.04493857      -0.02974428       0.02737489
H       10.90403664      13.96808925      13.62343738       0.03055903       0.02034124       0.00242216
H       11.83614673      14.90078260      11.56569995       0.06748457       0.01714980       0.01934362
25
Lattice="25.605137788558736 0.0 0.0 0.0 24.94760060518851 0.0 0.0 0.0 24.018216286516797" Properties=species:S:1:pos:R:3:forces:R:3 pbc="T T T"
C       10.51826611      11.93825240      10.96253594       0.00764270       0.05153048      -0.01981604
C       11.61207126      11.44434771      11.91181715      -0.01039242       0.01888521      -0.01473307
C       10.98600959      10.83426418      13.16061396      -0.03401081       0.02055032      -0.02545651
N       12.57305514      12.49344160      12.23607447       0.01020970      -0.00431705       0.00308167
C       13.98442214      12.10985301      12.13780224       0.00356472      -0.03389957       0.01181488
C       14.31638481      10.91372964      13.02120100      -0.02941217      -0.05011491       0.00428940
C       14.37859666      11.82341175      10.69108641       0.00929111      -0.02883370       0.01223889
Si      12.11471437      14.06298820      12.75968276       0.03942093       0.00124227       0.01337950
H        9.91200743      11.08088624      10.64455076      -0.00868968       0.06715323      -0.03285840
H       10.94886482      12.40244711      10.06838876       0.02509325       0.05064944      -0.01205359
H        9.85030419      12.66530395      11.44415296       0.01941099       0.06192239      -0.01887506
H       12.18698527      10.66357571      11.39694674      -0.02302120       0.01078480      -0.01694281
H       11.74908892      10.40949830      13.82157497      -0.04812333      -0.00241923      -0.02253715
H       10.41577252      11.58020475      13.72908550      -0.02258397       0.02830191      -0.02359423
H       10.30021716      10.03135994      12.86384235      -0.04958125       0.03751316      -0.03870358
H       14.57744431      12.96821636      12.49013814       0.01977221      -0.04943657       0.02467458
H       15.40081361      10.75166926      13.01400335      -0.03227628      -0.07337196       0.01217147
H       14.00642339      11.07966465      14.05875429      -0.03433922      -0.05327841       0.00345475
H       13.84001767       9.99646035      12.65206766      -0.04668384      -0.03686252      -0.00814807
H       13.87922358      10.92141774      10.31564135      -0.00773085      -0.01535834      -0.00018634
H       14.12235507      12.66119883      10.03282546       0.03258784      -0.01638272       0.01715840
H       15.46110913      11.66036927      10.63248015       0.00714089      -0.05159358       0.02023202
H       13.23254863      14.65028639      13.54013363       0.04493857      -0.02974428       0.02737489
H       10.91275000      13.97062803      13.62872371       0.03055903       0.02034124       0.00242216
H       11.83456521      14.89913854      11.56397049       0.06748457       0.01714980       0.01934362
25
Lattice="25.605137788558736 0.0 0.0 0.0 24.94760060518851 0.0 0.0 0.0 24.018216286516797" Properties=species:S:1:pos:R:3:forces:R:3 pbc="T T T"
C       10.51796246      11.94496520      10.96142893       0.00764270       0.05153048      -0.01981604
C       11.61087516      11.44668736      11.90958507      -0.01039242       0.01888521      -0.01473307
C       10.98334096      10.83527680      13.15698677      -0.03401081       0.02055032      -0.02545651
N       12.57413397      12.49299140      12.23621843       0.01020970      -0.00431705       0.00308167
C       13.98471273      12.10563742      12.14054960       0.00356472      -0.03389957       0.01181488
C       14.31158772      10.90677954      13.02226834      -0.02941217      -0.05011491       0.00428940
C       14.38141389      11.82102931      10.69414423       0.00929111      -0.02883370       0.01223889
Si      12.11908817      14.06395562      12.75851267       0.03942093       0.00124227       0.01337950
H        9.91007786      11.08944882      10.64144069      -0.00868968       0.06715323      -0.03285840
H       10.94932652      12.41050299      10.06834832       0.02509325       0.05064944      -0.01205359
H        9.85133892      12.67211805      11.44480765       0.01941099       0.06192239      -0.01887506
H       12.18417172      10.66577642      11.39305053      -0.02302120       0.01078480      -0.01694281
H       11.74524127      10.40607452      13.81653963      -0.04812333      -0.00241923      -0.02253715
H       10.41594468      11.58175407      13.72769463      -0.02258397       0.02830191      -0.02359423
H       10.29463383      10.03548232      12.85830235      -0.04958125       0.03751316      -0.03870358
H       14.57934330      12.96170199      12.49590134       0.01977221      -0.04943657       0.02467458
H       15.39572531      10.74237317      13.01762684      -0.03227628      -0.07337196       0.01217147
H       13.99929304      11.07106954      14.05939963      -0.03433922      -0.05327841       0.00345475
H       13.83425008       9.99131416      12.64976057      -0.04668384      -0.03686252      -0.00814807
H       13.87926486      10.92184577      10.31539211      -0.00773085      -0.01535834      -0.00018634
H       14.13009889      12.66142510      10.03711181       0.03258784      -0.01638272       0.01715840
H       15.46350427      11.65383404      10.63789264       0.00714089      -0.05159358       0.02023202
H       13.24093120      14.65328829      13.53196162       0.04493857      -0.02974428       0.02737489
H       10.92146336      13.97316682      13.63401005       0.03055903       0.02034124       0.00242216
H       11.83298369      14.89749447      11.56224103       0.06748457       0.01714980       0.01934362
