277
Lattice="14.863742776096284 0.0 0.0 2.4e-15 14.863742776096284 0.0 0.0 0.0 44.62268496864509" Properties=species:S:1:pos:R:3:move_mask:L:1:momenta:R:3:tags:I:1 mechanism="Physisorption, center=com, tag=2" candidate_id=1 energy=-1984.286736699393 E_ads_eV=-4.122791545847434 pbc="T T T"
Si       2.47729046       0.00000000      19.56958905  F       0.00000000       0.00000000       0.00000000        0
Si       2.47729046       2.47729046      17.74175343  F       0.00000000       0.00000000       0.00000000        0
Si       0.00000000       2.47729046      15.91391781  F       0.00000000       0.00000000       0.00000000        0
O        2.95682518       3.71593569      18.65567124  F       0.00000000       0.00000000       0.00000000        0
O        3.70504175       0.44636770      20.53850584  T       0.05801835       0.74020765      -0.46303089        0
O        1.23634532       4.44870509      20.49187443  T      -0.33855251       0.75131422      -0.03531503        0
O        1.99775575       1.23864523      18.65567124  F       0.00000000       0.00000000       0.00000000        0
O        0.47953471       1.23864523      15.00000000  F       0.00000000       0.00000000       0.00000000        0
O        1.23864523       2.95682518      16.82783562  F       0.00000000       0.00000000       0.00000000        0
O        3.71593569       1.99775575      16.82783562  F       0.00000000       0.00000000       0.00000000        0
O        4.47504621       3.71593569      15.00000000  F       0.00000000       0.00000000       0.00000000        0
Si       0.00860676      -0.04341390      21.45740112  T       0.12049939       0.63696787      -0.06876381        0
Si       2.37464574       0.06975353      27.03532635  T      -0.46792477       0.23653170      -0.70029207        0
Si       2.37033756       2.40304534      25.06740371  T       0.41825699      -0.00976737      -1.85313847        0
Si      -0.07702912       2.47046275      23.25410185  T       0.87058447       1.34109948      -0.48568822        0
O        2.78476381       3.55508454      26.11016803  T       0.08271048       0.85989427       0.89911964        0
O        3.62428481       0.72639670      27.83055667  T       0.29323559      -1.45474833       0.11054139        0
O        1.79120452       4.82855263      28.24116683  T       0.10084679       1.76598565      -1.18343516        0
O        1.86466640       1.08494976      25.86038518  T       0.96871447       1.00394487       1.56280408        0
O        0.45964485       1.22575261      22.36161725  T      -0.23584299       2.47715291       0.38747459        0
O        1.16887932       2.99320632      24.14839913  T      -0.22958792      -0.90527685       0.44028337        0
O        3.64348930       1.98810141      24.14159566  T      -0.63850922      -0.38244693      -0.61495235        0
O        4.44596638       3.73978897      22.34387329  T      -1.35794110      -0.19552733       0.65384041        0
Si       0.05308087       0.65728419      28.94659260  T      -1.63642468       0.75833824       1.28479027        0
O        0.77892922       2.24505619      28.81819152  T      -1.13260729      -1.65323244       0.03104860        0
O        4.66975826       3.63440725      29.20597163  T       0.52189101       2.14117017       0.51438974        0
Si       2.47729046       4.95458093      19.56958905  F       0.00000000       0.00000000       0.00000000        0
Si       2.47729046       7.43187139      17.74175343  F       0.00000000       0.00000000       0.00000000        0
Si       0.00000000       7.43187139      15.91391781  F       0.00000000       0.00000000       0.00000000        0
O        2.95682518       8.67051662      18.65567124  F       0.00000000       0.00000000       0.00000000        0
O        3.71973119       5.45619542      20.48629251  T       1.51582739      -0.06807549       0.35881834        0
O        1.25449828       9.44777853      20.53486130  T       0.76146323      -1.08513719      -0.01502191        0
O        1.99775575       6.19322616      18.65567124  F       0.00000000       0.00000000       0.00000000        0
O        0.47953471       6.19322616      15.00000000  F       0.00000000       0.00000000       0.00000000        0
O        1.23864523       7.91140610      16.82783562  F       0.00000000       0.00000000       0.00000000        0
O        3.71593569       6.95233667      16.82783562  F       0.00000000       0.00000000       0.00000000        0
O        4.47504621       8.67051662      15.00000000  F       0.00000000       0.00000000       0.00000000        0
Si      -0.01252823       4.93503859      21.40993267  T       0.82766848      -1.20391022      -1.02707830        0
Si       2.65262515       4.96483376      26.88476707  T      -1.47407645       0.18241162      -1.20013886        0
Si       2.49086267       7.38085964      25.06695574  T       0.14281083       0.81185349       0.56783022        0
Si       0.00512423       7.40511849      23.26356113  T      -2.17042192      -0.15963825       1.07725921        0
O        2.99392987       8.57681822      26.02618521  T      -0.77975959      -0.46557615       0.03569163        0
O        4.18592014       5.39400356      27.24230376  T       0.33776870       0.91010272       0.70425501        0
O        1.19476970       9.18727923      27.87715376  T      -0.80689994       0.31060134      -0.72061927        0
O        1.98574109       6.08522588      25.91126552  T      -0.16993953      -0.68764431      -0.63604606        0
O        0.49627529       6.14802356      22.35717412  T      -0.86614917      -0.41533271      -0.77847814        0
O        1.26612266       7.92344089      24.14267791  T      -0.26701505      -1.44279122      -0.07005476        0
O        3.72494205       6.89085930      24.12734110  T       0.02150733      -1.17150867      -0.86580722        0
O        4.45347998       8.66455057      22.33366257  T       0.32444708      -1.77533049      -1.12011332        0
Si       0.33550962       4.81529256      28.98524419  T       0.96395262      -0.14438767      -0.28362053        0
O        0.27280188       5.80016376      30.25224984  T       0.72352449      -0.91315769      -0.13902813        0
O        4.19728098       7.48803056      29.00603357  T      -0.72179663       0.04816978      -0.44256467        0
Si       2.47729046       9.90916185      19.56958905  F       0.00000000       0.00000000       0.00000000        0
Si       2.47729046      12.38645231      17.74175343  F       0.00000000       0.00000000       0.00000000        0
Si       0.00000000      12.38645231      15.91391781  F       0.00000000       0.00000000       0.00000000        0
O        2.95682518      13.62509754      18.65567124  F       0.00000000       0.00000000       0.00000000        0
O        3.72346864      10.41559097      20.48780351  T       0.56788704       1.41438353       0.59462008        0
O        1.23351677      14.36499235      20.49525779  T       0.05151228       0.16607324      -0.53196590        0
O        1.99775575      11.14780708      18.65567124  F       0.00000000       0.00000000       0.00000000        0
O        0.47953471      11.14780708      15.00000000  F       0.00000000       0.00000000       0.00000000        0
O        1.23864523      12.86598703      16.82783562  F       0.00000000       0.00000000       0.00000000        0
O        3.71593569      11.90691760      16.82783562  F       0.00000000       0.00000000       0.00000000        0
O        4.47504621      13.62509754      15.00000000  F       0.00000000       0.00000000       0.00000000        0
Si      -0.01194617       9.89891767      21.44948945  T      -0.99222701      -1.59916767      -0.11041052        0
Si       2.53711736       9.69408406      27.12377491  T      -0.04910554      -1.71114374       0.99969718        0
Si       2.49021623      12.31758605      25.34757966  T       0.07950366      -0.02489984       1.54261621        0
Si       0.00295508      12.34505255      23.41242627  T       1.58859478       0.88450298       1.07223239        0
O        2.88702500      13.57300694      26.30068910  T       1.77883628       0.37227071      -0.27407629        0
O        3.74753854       9.90215427      28.17455060  T       0.94126256       0.81110088      -0.72644123        0
O        1.16088591      14.65246429      28.06362079  T       0.02783903       1.58581697       0.63104837        0
O        2.17444949      11.05726211      26.30849321  T       1.92416202      -1.53606309       1.57129994        0
O        0.42787813      11.09095513      22.46467566  T      -0.73680492       0.50916695      -0.75032353        0
O        1.21851931      12.72927101      24.41460798  T      -0.90051033      -0.55622805      -0.84852018        0
O        3.69491402      11.93602232      24.32074290  T      -0.19741615       0.13563988       0.14209805        0
O        4.54006689      13.64466755      22.45911297  T       0.84112146      -0.33379233       0.20179531        0
Si      -0.06922233       9.36084488      28.88565005  T       0.24084708      -0.52800152      -0.20911056        0
O        0.31738361      10.02740352      30.32756536  T       0.29749955      -0.03541699       0.11811884        0
O        4.64618324      15.59139175      30.30405595  T       0.67627931      -1.01199896       0.80151807        0
Si       7.43187139       0.00000000      19.56958905  F       0.00000000       0.00000000       0.00000000        0
Si       7.43187139       2.47729046      17.74175343  F       0.00000000       0.00000000       0.00000000        0
Si       4.95458093       2.47729046      15.91391781  F       0.00000000       0.00000000       0.00000000        0
O        7.91140610       3.71593569      18.65567124  F       0.00000000       0.00000000       0.00000000        0
O        8.65893654       0.46761781      20.52556130  T      -0.31719091       0.58559677       0.90853440        0
O        6.19377744       4.43955861      20.48595805  T       1.29582673      -0.53689869       0.40787174        0
O        6.95233667       1.23864523      18.65567124  F       0.00000000       0.00000000       0.00000000        0
O        5.43411564       1.23864523      15.00000000  F       0.00000000       0.00000000       0.00000000        0
O        6.19322616       2.95682518      16.82783562  F       0.00000000       0.00000000       0.00000000        0
O        8.67051662       1.99775575      16.82783562  F       0.00000000       0.00000000       0.00000000        0
O        9.42962714       3.71593569      15.00000000  F       0.00000000       0.00000000       0.00000000        0
Si       4.96678804      -0.01058620      21.45779228  T       0.94775449      -0.74889543       1.48902676        0
Si       7.33148423       0.05132169      27.06455712  T      -2.67426823       1.17860992      -0.12909298        0
Si       7.36405046       2.43700109      25.13060149  T      -0.63293377      -0.22198428      -0.58811018        0
Si       4.91407661       2.49048676      23.26883231  T      -2.16243875      -0.00316103      -0.22756369        0
O        7.76008308       3.53001028      26.25054858  T      -0.05570999      -0.44878441       0.92459796        0
O        8.72031279       0.55903157      27.76991988  T       0.93793907      -0.66848673       0.66149291        0
O        6.67310445       5.04466712      28.21765016  T       1.15904888      -1.24453210      -1.01475434        0
O        6.92157172       1.05421845      25.86102322  T       0.39693825       0.24710567       0.38332691        0
O        5.44897645       1.26882656      22.33921507  T      -1.03051894      -1.26268971       0.13472157        0
O        6.12436806       2.98179492      24.23389462  T       1.42260129      -0.97667327       1.15742620        0
O        8.62290698       2.07006627      24.17372521  T      -1.09172015       0.05527952       0.25072404        0
O        9.40795713       3.79632569      22.35984026  T      -1.29252057       0.64545165       0.09315186        0
Si       4.92766965       1.00998886      28.74148727  T       0.64575991      -0.76791010      -0.63205954        0
O        5.46642528       2.60282464      28.48296780  T      -0.39736206      -1.28824229      -0.75045837        0
O        9.39635226       4.39253606      29.97778521  T      -2.16360046       0.72245848      -1.30516180        0
Si       7.43187139       4.95458093      19.56958905  F       0.00000000       0.00000000       0.00000000        0
Si       7.43187139       7.43187139      17.74175343  F       0.00000000       0.00000000       0.00000000        0
Si       4.95458093       7.43187139      15.91391781  F       0.00000000       0.00000000       0.00000000        0
O        7.91140610       8.67051662      18.65567124  F       0.00000000       0.00000000       0.00000000        0
O        8.67397144       5.47241099      20.48115843  T       0.09545797       0.52108409       0.65641827        0
O        6.19638008       9.45095204      20.52034067  T       0.22249836      -0.80815934       0.03020332        0
O        6.95233667       6.19322616      18.65567124  F       0.00000000       0.00000000       0.00000000        0
O        5.43411564       6.19322616      15.00000000  F       0.00000000       0.00000000       0.00000000        0
O        6.19322616       7.91140610      16.82783562  F       0.00000000       0.00000000       0.00000000        0
O        8.67051662       6.95233667      16.82783562  F       0.00000000       0.00000000       0.00000000        0
O        9.42962714       8.67051662      15.00000000  F       0.00000000       0.00000000       0.00000000        0
Si       4.96130067       4.95921032      21.40591721  T       0.82840344      -0.15080278      -0.17742398        0
Si       7.67299892       4.99992068      26.94219165  T      -0.99975875      -0.11622394       0.63384702        0
Si       7.47695900       7.34623370      25.02556278  T       0.87856197       1.09573499      -0.65441876        0
Si       4.97219238       7.42167646      23.24214448  T      -1.14939516       0.77540627       0.84929641        0
O        8.01232324       8.52359931      25.99720597  T      -0.26180675      -1.76295096      -1.14132756        0
O        9.15564687       5.41911324      27.42488136  T       0.37662067       1.69185791      -0.19573166        0
O        6.16892329       8.99109590      27.83755227  T      -0.35133132      -1.15570662       0.00232612        0
O        7.03892664       6.02486958      25.85090847  T      -0.29482468      -0.67103949       0.60177447        0
O        5.49124818       6.20676748      22.29563615  T      -0.59492986       0.84854027      -0.41186602        0
O        6.20853094       7.90720959      24.17218446  T       1.16124097       0.87860140       0.80262453        0
O        8.66266551       6.85811851      24.02980578  T       0.60451838       1.84865595      -0.35825686        0
O        9.52243512       8.72263515      22.43844680  T      -0.52973217      -1.02228566      -1.02264885        0
Si       5.10265891       5.14713577      28.55022565  T      -0.54919109      -1.14692530      -1.17227701        0
O        4.89279752       6.38922190      29.68172174  T       1.19957663       0.13514822       0.68534230        0
O        9.40425771       7.73155900      29.17300154  T       1.09511588       0.46049433      -0.03388792        0
Si       7.43187139       9.90916185      19.56958905  F       0.00000000       0.00000000       0.00000000        0
Si       7.43187139      12.38645231      17.74175343  F       0.00000000       0.00000000       0.00000000        0
Si       4.95458093      12.38645231      15.91391781  F       0.00000000       0.00000000       0.00000000        0
O        7.91140610      13.62509754      18.65567124  F       0.00000000       0.00000000       0.00000000        0
O        8.66903657      10.38290668      20.52303502  T      -1.08568683       0.94905098       1.97475467        0
O        6.18769425      14.37010161      20.50064553  T      -0.07860446       2.24927137       2.37842585        0
O        6.95233667      11.14780708      18.65567124  F       0.00000000       0.00000000       0.00000000        0
O        5.43411564      11.14780708      15.00000000  F       0.00000000       0.00000000       0.00000000        0
O        6.19322616      12.86598703      16.82783562  F       0.00000000       0.00000000       0.00000000        0
O        8.67051662      11.90691760      16.82783562  F       0.00000000       0.00000000       0.00000000        0
O        9.42962714      13.62509754      15.00000000  F       0.00000000       0.00000000       0.00000000        0
Si       4.94433844       9.92729216      21.43981785  T       2.28131682      -0.34275398       2.13726107        0
Si       7.44083603       9.62552982      27.06359441  T       0.22063211       0.35186631      -0.95724100        0
Si       7.37385341      12.26967808      25.36056795  T      -0.43960496       0.71840063      -0.50891562        0
Si       4.94734545      12.37268652      23.39121787  T       0.71864439       1.19455401      -0.78790388        0
O        7.62918548      13.44062678      26.46573376  T       0.15736555       0.36833927       0.86191983        0
O        8.63277166      10.02960276      28.08202496  T      -0.72410072       0.37374339      -1.94251549        0
O        6.15191243      14.92249626      28.17649541  T       0.61622406      -1.19089314       1.74430771        0
O        6.98700355      10.92791006      26.17855937  T       0.24589428      -0.80121224       0.46499394        0
O        5.39149551      11.14572999      22.41772225  T       0.16424688       2.01420796      -0.03780330        0
O        6.18043699      12.75984091      24.37032248  T       0.77592710      -0.10189541       0.65527204        0
O        8.67833688      12.01937941      24.41629783  T       0.08241158      -0.22740750       0.74823861        0
O        9.44964296      13.70115270      22.47595058  T       1.39601654      -1.38882337      -0.09124745        0
Si       4.95444833       9.07671769      28.96310271  T       0.75377504      -0.48516933      -0.76583259        0
O        5.33994922       9.62974768      30.39151357  T      -0.33346408      -0.54182050       1.09719549        0
O        9.39090532      14.40409913      30.31524726  T       0.15905475      -0.32264370       0.47296709        0
Si      12.38645231       0.00000000      19.56958905  F       0.00000000       0.00000000       0.00000000        0
Si      12.38645231       2.47729046      17.74175343  F       0.00000000       0.00000000       0.00000000        0
Si       9.90916185       2.47729046      15.91391781  F       0.00000000       0.00000000       0.00000000        0
O       12.86598703       3.71593569      18.65567124  F       0.00000000       0.00000000       0.00000000        0
O       13.61493067       0.42686141      20.54148145  T      -1.02970172      -0.69868913      -0.84571401        0
O       11.14110583       4.43681730      20.47338487  T       0.48058564       0.84249428       1.51714882        0
O       11.90691760       1.23864523      18.65567124  F       0.00000000       0.00000000       0.00000000        0
O       10.38869656       1.23864523      15.00000000  F       0.00000000       0.00000000       0.00000000        0
O       11.14780708       2.95682518      16.82783562  F       0.00000000       0.00000000       0.00000000        0
O       13.62509754       1.99775575      16.82783562  F       0.00000000       0.00000000       0.00000000        0
O       14.38420806       3.71593569      15.00000000  F       0.00000000       0.00000000       0.00000000        0
Si       9.91178774       0.02355981      21.46015136  T       0.01703357       0.96651470       1.31720864        0
Si      12.38560994       0.12294834      27.09130936  T       0.80921621       0.02799047       0.22695282        0
Si      12.32612062       2.48701184      25.15209957  T      -0.76326850      -1.73829789       1.09767118        0
Si       9.88230857       2.54079907      23.27171091  T       2.31158383       1.25737233       1.56042073        0
O       12.80740560       3.68627389      26.10988478  T      -0.90469550      -0.10860808      -0.00099999        0
O       13.60433721       0.73103365      27.93833999  T       0.71819313       1.37080004       0.64939350        0
O       11.50274857       4.63062454      28.26803628  T      -0.21019558       1.48081910      -1.76868490        0
O       11.80523705       1.22865954      26.04394468  T      -0.00383383       2.10914563       0.50326241        0
O       10.38502887       1.31257880      22.33249069  T       0.96609022      -0.55165551       0.45130605        0
O       11.10635505       3.01707413      24.21970568  T       0.41391582      -0.68648558      -1.84704618        0
O       13.55211152       1.99605120      24.19581121  T       0.26591776       0.16449603       0.16118216        0
O       14.29984720       3.68563418      22.29116532  T       0.53370736      -0.13528943       0.34947925        0
Si       9.83353538       0.21034120      28.86899404  T       0.65795194       0.20649111      -0.16800111        0
O        9.87715756       1.05543911      30.29122823  T       0.77072642       0.14905826      -0.16293699        0
O       15.00914103       3.24733936      29.66912315  T      -1.20081785       0.08159073       0.46154376        0
Si      12.38645231       4.95458093      19.56958905  F       0.00000000       0.00000000       0.00000000        0
Si      12.38645231       7.43187139      17.74175343  F       0.00000000       0.00000000       0.00000000        0
Si       9.90916185       7.43187139      15.91391781  F       0.00000000       0.00000000       0.00000000        0
O       12.86598703       8.67051662      18.65567124  F       0.00000000       0.00000000       0.00000000        0
O       13.62720993       5.46413697      20.48366332  T      -0.39641445       0.52940697       0.10286657        0
O       11.16281823       9.49463651      20.55130614  T      -0.60997840      -1.67924762      -0.65913838        0
O       11.90691760       6.19322616      18.65567124  F       0.00000000       0.00000000       0.00000000        0
O       10.38869656       6.19322616      15.00000000  F       0.00000000       0.00000000       0.00000000        0
O       11.14780708       7.91140610      16.82783562  F       0.00000000       0.00000000       0.00000000        0
O       13.62509754       6.95233667      16.82783562  F       0.00000000       0.00000000       0.00000000        0
O       14.38420806       8.67051662      15.00000000  F       0.00000000       0.00000000       0.00000000        0
Si       9.92632420       4.99262835      21.39553887  T       1.04038727       0.42936100      -3.58080951        0
Si      12.63302720       4.92689298      27.14505588  T       1.73318126      -0.27273564       0.34013323        0
Si      12.47371055       7.41329434      25.22016126  T       0.71070427      -0.49976676      -0.50017398        0
Si       9.98080137       7.40698618      23.27118254  T      -1.97080749       0.10384328      -1.01324151        0
O       12.94088885       8.76335372      25.98383408  T      -0.51770661       0.97090630      -0.50914932        0
O       14.08050064       5.11612233      27.84238487  T       0.28953974       0.42489720      -0.53663698        0
O       11.13757644       9.28183921      27.86410511  T       1.14365881       0.14353659       0.39743780        0
O       12.19018464       6.23488828      26.28869267  T       0.73893291      -1.69247243      -0.90507434        0
O       10.49739839       6.25239221      22.24717817  T      -0.45506133       0.70675394      -0.36109657        0
O       11.15094578       7.74991938      24.33258004  T      -0.82939349       0.68330570       0.33220975        0
O       13.65200969       6.91733184      24.21197313  T      -0.25865992       0.30705429       1.72583207        0
O       14.34745930       8.61390667      22.30805751  T      -0.11563139       1.00820542      -1.50103528        0
Si      10.05515349       5.21260202      28.80464735  T      -0.78574124      -0.46800279      -0.09423327        0
O       10.47876568       6.85357617      29.27768602  T       1.12396696       0.77482971       0.00794162        0
O       14.29414297       7.93391224      29.47515538  T       0.32302224      -0.79840656      -0.46964019        0
Si      12.38645231       9.90916185      19.56958905  F       0.00000000       0.00000000       0.00000000        0
Si      12.38645231      12.38645231      17.74175343  F       0.00000000       0.00000000       0.00000000        0
Si       9.90916185      12.38645231      15.91391781  F       0.00000000       0.00000000       0.00000000        0
O       12.86598703      13.62509754      18.65567124  F       0.00000000       0.00000000       0.00000000        0
O       13.64361879      10.40217469      20.48653055  T      -0.60951714      -1.14860714       2.39254989        0
O       11.13694913      14.38989557      20.51227367  T      -0.41952861      -0.77669283      -0.43872340        0
O       11.90691760      11.14780708      18.65567124  F       0.00000000       0.00000000       0.00000000        0
O       10.38869656      11.14780708      15.00000000  F       0.00000000       0.00000000       0.00000000        0
O       11.14780708      12.86598703      16.82783562  F       0.00000000       0.00000000       0.00000000        0
O       13.62509754      11.90691760      16.82783562  F       0.00000000       0.00000000       0.00000000        0
O       14.38420806      13.62509754      15.00000000  F       0.00000000       0.00000000       0.00000000        0
Si       9.91584320       9.96816376      21.48110720  T      -0.87938809      -0.46184633      -3.23994149        0
Si      12.41537747       9.85981241      27.07583494  T      -0.79922312      -0.04636430      -0.37197734        0
Si      12.38012164      12.42258296      25.30734264  T       1.06171901      -0.19171242      -0.36075139        0
Si       9.88984024      12.45018036      23.42313708  T      -0.89098498      -0.90045233      -1.57045406        0
O       12.82915856      13.67074368      26.25118702  T      -0.05190919       1.03193035      -0.93580896        0
O       13.65070881      10.20869335      28.07698875  T      -0.33622708      -0.96629005      -0.18196108        0
O       11.16895409      14.59984260      28.12914299  T      -0.42283041      -0.28171738       1.02658730        0
O       11.94903729      11.19207178      26.26098548  T       1.84216166       1.21285464      -0.83044265        0
O       10.31482343      11.22214187      22.43893029  T      -0.61133249      -0.60273200      -0.90962016        0
O       11.14484225      12.89199054      24.35381320  T      -0.42602394      -0.03382495       0.19882321        0
O       13.58734669      11.95288021      24.32611157  T       1.38561713       1.00536649       0.63515332        0
O       14.47261715      13.59432632      22.44458203  T       0.81958794       0.37030819      -0.49366540        0
Si       9.90567559       9.41762649      28.93932645  T      -1.67089798       1.29663819       0.36893137        0
O       10.20900135      10.12694655      30.31801710  T      -1.39481211       0.07014475      -0.29578219        0
O       14.66928097      15.03892359      30.42671412  T      -1.46265415       0.45734184       0.73407253        0
H       10.67422626       5.45569876      14.45582528  F       0.00000000       0.00000000       0.00000000        0
H        4.18951652       9.40804402      14.45582528  F       0.00000000       0.00000000       0.00000000        0
H        4.18951652      14.36262494      14.45582528  F       0.00000000       0.00000000       0.00000000        0
H        9.14409745       9.40804402      14.45582528  F       0.00000000       0.00000000       0.00000000        0
H        9.14409745      14.36262494      14.45582528  F       0.00000000       0.00000000       0.00000000        0
H       14.09867837       4.45346309      14.45582528  F       0.00000000       0.00000000       0.00000000        0
H       14.09867837       9.40804402      14.45582528  F       0.00000000       0.00000000       0.00000000        0
H        0.76506440       5.45569876      14.45582528  F       0.00000000       0.00000000       0.00000000        0
H        5.71964533       0.50111783      14.45582528  F       0.00000000       0.00000000       0.00000000        0
H        5.71964533       5.45569876      14.45582528  F       0.00000000       0.00000000       0.00000000        0
H       10.67422626       0.50111783      14.45582528  F       0.00000000       0.00000000       0.00000000        0
H       14.09867837      14.36262494      14.45582528  F       0.00000000       0.00000000       0.00000000        0
H        0.76506440      10.41027968      14.45582528  F       0.00000000       0.00000000       0.00000000        0
H        5.71964533      10.41027968      14.45582528  F       0.00000000       0.00000000       0.00000000        0
H       10.67422626      10.41027968      14.45582528  F       0.00000000       0.00000000       0.00000000        0
H        0.76506440       0.50111783      14.45582528  F       0.00000000       0.00000000       0.00000000        0
H        4.18951652       4.45346309      14.45582528  F       0.00000000       0.00000000       0.00000000        0
H        9.14409745       4.45346309      14.45582528  F       0.00000000       0.00000000       0.00000000        0
C        3.75585498       4.42800130      31.86397243  T       0.00000000       0.00000000       0.00000000        2