277
Lattice="14.863742776096284 0.0 0.0 2.4e-15 14.863742776096284 0.0 0.0 0.0 44.62268496864509" Properties=species:S:1:pos:R:3:momenta:R:3:tags:I:1 mechanism="Physisorption, center=com, tag=2" candidate_id=2 energy=-2001.2631899658697 E_ads_eV=-21.099244812324145 pbc="T T T"
Si       2.47729046       0.00000000      19.56958905       0.00000000       0.00000000       0.00000000        0
Si       2.47729046       2.47729046      17.74175343       0.00000000       0.00000000       0.00000000        0
Si       0.00000000       2.47729046      15.91391781       0.00000000       0.00000000       0.00000000        0
O        2.95682518       3.71593569      18.65567124       0.00000000       0.00000000       0.00000000        0
O        3.70962695       0.41365026      20.55391184       0.05801835       0.74020765      -0.46303089        0
O        1.23355770       4.43291979      20.47636327      -0.33855251       0.75131422      -0.03531503        0
O        1.99775575       1.23864523      18.65567124       0.00000000       0.00000000       0.00000000        0
O        0.47953471       1.23864523      15.00000000       0.00000000       0.00000000       0.00000000        0
O        1.23864523       2.95682518      16.82783562       0.00000000       0.00000000       0.00000000        0
O        3.71593569       1.99775575      16.82783562       0.00000000       0.00000000       0.00000000        0
O        4.47504621       3.71593569      15.00000000       0.00000000       0.00000000       0.00000000        0
Si       0.03432392       0.01462965      21.45648931       0.12049939       0.63696787      -0.06876381        0
Si       2.59857631       0.01246127      27.11102842      -0.46792477       0.23653170      -0.70029207        0
Si       2.61549574       2.43597764      25.13201862       0.41825699      -0.00976737      -1.85313847        0
Si       0.08100571       2.50195460      23.30758891       0.87058447       1.34109948      -0.48568822        0
O        3.15114166       3.70752069      26.00581449       0.08271048       0.85989427       0.89911964        0
O        3.90945297       0.43209274      27.99843707       0.29323559      -1.45474833       0.11054139        0
O        1.23584667       4.19356558      27.75130014       0.10084679       1.76598565      -1.18343516        0
O        2.19428368       1.22736099      26.11236716       0.96871447       1.00394487       1.56280408        0
O        0.53465089       1.31379962      22.29760117      -0.23584299       2.47715291       0.38747459        0
O        1.34189531       2.91616507      24.24345029      -0.22958792      -0.90527685       0.44028337        0
O        3.80708267       1.91477118      24.16332969      -0.63850922      -0.38244693      -0.61495235        0
O        4.43610573       3.67991060      22.30639085      -1.35794110      -0.19552733       0.65384041        0
Si      -0.00418381       0.24724716      28.84036424      -1.63642468       0.75833824       1.28479027        0
O        0.56519661       1.82855201      29.36413562      -1.13260729      -1.65323244       0.03104860        0
O        5.51967733       1.81489493      30.50497453       0.52189101       2.14117017       0.51438974        0
Si       2.47729046       4.95458093      19.56958905       0.00000000       0.00000000       0.00000000        0
Si       2.47729046       7.43187139      17.74175343       0.00000000       0.00000000       0.00000000        0
Si       0.00000000       7.43187139      15.91391781       0.00000000       0.00000000       0.00000000        0
O        2.95682518       8.67051662      18.65567124       0.00000000       0.00000000       0.00000000        0
O        3.70883200       5.46250037      20.50233545       1.51582739      -0.06807549       0.35881834        0
O        1.24434103       9.48068520      20.54225160       0.76146323      -1.08513719      -0.01502191        0
O        1.99775575       6.19322616      18.65567124       0.00000000       0.00000000       0.00000000        0
O        0.47953471       6.19322616      15.00000000       0.00000000       0.00000000       0.00000000        0
O        1.23864523       7.91140610      16.82783562       0.00000000       0.00000000       0.00000000        0
O        3.71593569       6.95233667      16.82783562       0.00000000       0.00000000       0.00000000        0
O        4.47504621       8.67051662      15.00000000       0.00000000       0.00000000       0.00000000        0
Si       0.02732238       4.96757929      21.42114601       0.82766848      -1.20391022      -1.02707830        0
Si       2.41795181       4.87342096      26.87305682      -1.47407645       0.18241162      -1.20013886        0
Si       2.33493409       7.40171270      25.19980437       0.14281083       0.81185349       0.56783022        0
Si       0.00005948       7.43164659      23.21312561      -2.17042192      -0.15963825       1.07725921        0
O        2.55619860       8.46878539      26.38711906      -0.77975959      -0.46557615       0.03569163        0
O        3.48729752       5.57553530      27.86329955       0.33776870       0.91010272       0.70425501        0
O        1.00544753       9.59457460      28.27338906      -0.80689994       0.31060134      -0.72061927        0
O        1.81981984       5.99872448      25.85933706      -0.16993953      -0.68764431      -0.63604606        0
O        0.57213418       6.25487184      22.24999206      -0.86614917      -0.41533271      -0.77847814        0
O        1.20583499       7.95011516      24.17051299      -0.26701505      -1.44279122      -0.07005476        0
O        3.72458096       7.13500483      24.39340795       0.02150733      -1.17150867      -0.86580722        0
O        4.40457572       8.65007337      22.32041378       0.32444708      -1.77533049      -1.12011332        0
Si       0.03059384       4.34169456      28.82967364       0.96395262      -0.14438767      -0.28362053        0
O        0.54534574       5.24659804      30.10913130       0.72352449      -0.91315769      -0.13902813        0
O        4.84028513       7.51094522      29.01975263      -0.72179663       0.04816978      -0.44256467        0
Si       2.47729046       9.90916185      19.56958905       0.00000000       0.00000000       0.00000000        0
Si       2.47729046      12.38645231      17.74175343       0.00000000       0.00000000       0.00000000        0
Si       0.00000000      12.38645231      15.91391781       0.00000000       0.00000000       0.00000000        0
O        2.95682518      13.62509754      18.65567124       0.00000000       0.00000000       0.00000000        0
O        3.72846800      10.41246967      20.47845453       0.56788704       1.41438353       0.59462008        0
O        1.23075656      14.36710017      20.48770331       0.05151228       0.16607324      -0.53196590        0
O        1.99775575      11.14780708      18.65567124       0.00000000       0.00000000       0.00000000        0
O        0.47953471      11.14780708      15.00000000       0.00000000       0.00000000       0.00000000        0
O        1.23864523      12.86598703      16.82783562       0.00000000       0.00000000       0.00000000        0
O        3.71593569      11.90691760      16.82783562       0.00000000       0.00000000       0.00000000        0
O        4.47504621      13.62509754      15.00000000       0.00000000       0.00000000       0.00000000        0
Si      -0.02059010       9.95156521      21.45106546      -0.99222701      -1.59916767      -0.11041052        0
Si       2.32022533       9.76648955      27.34462000      -0.04910554      -1.71114374       0.99969718        0
Si       2.52005209      12.29090650      25.34814410       0.07950366      -0.02489984       1.54261621        0
Si       0.00043362      12.40013802      23.42616987       1.58859478       0.88450298       1.07223239        0
O        3.00244599      13.57478525      26.21848210       1.77883628       0.37227071      -0.27407629        0
O        3.66376378       9.84979181      28.28218958       0.94126256       0.81110088      -0.72644123        0
O        1.35441181      14.56958337      28.07240054       0.02783903       1.58581697       0.63104837        0
O        2.21627067      11.06880065      26.36819204       1.92416202      -1.53606309       1.57129994        0
O        0.40799337      11.16361793      22.44623020      -0.73680492       0.50916695      -0.75032353        0
O        1.21303622      12.69400232      24.46512161      -0.90051033      -0.55622805      -0.84852018        0
O        3.69203821      11.86844284      24.29682793      -0.19741615       0.13563988       0.14209805        0
O        4.58161144      13.62829291      22.49022220       0.84112146      -0.33379233       0.20179531        0
Si      -0.31654295      10.40666910      28.90224668       0.24084708      -0.52800152      -0.20911056        0
O        0.25648160      11.78996317      29.47595827       0.29749955      -0.03541699       0.11811884        0
O        4.91005557      13.69492964      29.95121385       0.67627931      -1.01199896       0.80151807        0
Si       7.43187139       0.00000000      19.56958905       0.00000000       0.00000000       0.00000000        0
Si       7.43187139       2.47729046      17.74175343       0.00000000       0.00000000       0.00000000        0
Si       4.95458093       2.47729046      15.91391781       0.00000000       0.00000000       0.00000000        0
O        7.91140610       3.71593569      18.65567124       0.00000000       0.00000000       0.00000000        0
O        8.65933777       0.53148175      20.48822999      -0.31719091       0.58559677       0.90853440        0
O        6.20237115       4.52829884      20.54550469       1.29582673      -0.53689869       0.40787174        0
O        6.95233667       1.23864523      18.65567124       0.00000000       0.00000000       0.00000000        0
O        5.43411564       1.23864523      15.00000000       0.00000000       0.00000000       0.00000000        0
O        6.19322616       2.95682518      16.82783562       0.00000000       0.00000000       0.00000000        0
O        8.67051662       1.99775575      16.82783562       0.00000000       0.00000000       0.00000000        0
O        9.42962714       3.71593569      15.00000000       0.00000000       0.00000000       0.00000000        0
Si       4.98688655      -0.04646861      21.45289936       0.94775449      -0.74889543       1.48902676        0
Si       7.52141109      -0.06199012      26.79105822      -2.67426823       1.17860992      -0.12909298        0
Si       7.32887586       2.57031979      25.23616870      -0.63293377      -0.22198428      -0.58811018        0
Si       5.00536396       2.46355737      23.21834686      -2.16243875      -0.00316103      -0.22756369        0
O        7.34142210       3.67893327      26.41975673      -0.05570999      -0.44878441       0.92459796        0
O        8.71531668       0.51897928      27.72612722       0.93793907      -0.66848673       0.66149291        0
O        6.08914172       5.21455412      28.24507326       1.15904888      -1.24453210      -1.01475434        0
O        6.90465951       1.14619777      25.89879841       0.39693825       0.24710567       0.38332691        0
O        5.52614445       1.24122348      22.28833982      -1.03051894      -1.26268971       0.13472157        0
O        6.24123950       3.01226211      24.11524301       1.42260129      -0.97667327       1.15742620        0
O        8.77417526       2.37738978      24.51972236      -1.09172015       0.05527952       0.25072404        0
O        9.39905578       3.70404615      22.32637547      -1.29252057       0.64545165       0.09315186        0
Si       5.23960810      -0.10966043      28.75019163       0.64575991      -0.76791010      -0.63205954        0
O        6.15894939       1.15854898      29.35890137      -0.39736206      -1.28824229      -0.75045837        0
O        9.39538874       4.29495216      29.96886043      -2.16360046       0.72245848      -1.30516180        0
Si       7.43187139       4.95458093      19.56958905       0.00000000       0.00000000       0.00000000        0
Si       7.43187139       7.43187139      17.74175343       0.00000000       0.00000000       0.00000000        0
Si       4.95458093       7.43187139      15.91391781       0.00000000       0.00000000       0.00000000        0
O        7.91140610       8.67051662      18.65567124       0.00000000       0.00000000       0.00000000        0
O        8.68403102       5.45154926      20.47855322       0.09545797       0.52108409       0.65641827        0
O        6.19628384       9.43003511      20.51620487       0.22249836      -0.80815934       0.03020332        0
O        6.95233667       6.19322616      18.65567124       0.00000000       0.00000000       0.00000000        0
O        5.43411564       6.19322616      15.00000000       0.00000000       0.00000000       0.00000000        0
O        6.19322616       7.91140610      16.82783562       0.00000000       0.00000000       0.00000000        0
O        8.67051662       6.95233667      16.82783562       0.00000000       0.00000000       0.00000000        0
O        9.42962714       8.67051662      15.00000000       0.00000000       0.00000000       0.00000000        0
Si       4.92994098       4.97286374      21.45441262       0.82840344      -0.15080278      -0.17742398        0
Si       7.22975289       5.15511368      27.08266975      -0.99975875      -0.11622394       0.63384702        0
Si       7.42621824       7.47344061      25.07802641       0.87856197       1.09573499      -0.65441876        0
Si       4.90920454       7.48872154      23.33851424      -1.14939516       0.77540627       0.84929641        0
O        8.01387668       8.64172709      26.03700127      -0.26180675      -1.76295096      -1.14132756        0
O        8.65769650       5.55901296      27.71323905       0.37662067       1.69185791      -0.19573166        0
O        6.27323076       9.37294021      27.87213918      -0.35133132      -1.15570662       0.00232612        0
O        6.81528387       6.23836019      25.94253759      -0.29482468      -0.67103949       0.60177447        0
O        5.32734115       6.17009910      22.48022744      -0.59492986       0.84854027      -0.41186602        0
O        6.21362187       8.03972903      24.14658052       1.16124097       0.87860140       0.80262453        0
O        8.63099545       6.90315417      24.14728619       0.60451838       1.84865595      -0.35825686        0
O        9.49270727       8.67996610      22.40684755      -0.52973217      -1.02228566      -1.02264885        0
Si       4.74219414       5.90832427      28.81795012      -0.54919109      -1.14692530      -1.17227701        0
O        4.49083144       5.23361524      30.28932908       1.19957663       0.13514822       0.68534230        0
O        9.48813776       7.74958489      29.20601427       1.09511588       0.46049433      -0.03388792        0
Si       7.43187139       9.90916185      19.56958905       0.00000000       0.00000000       0.00000000        0
Si       7.43187139      12.38645231      17.74175343       0.00000000       0.00000000       0.00000000        0
Si       4.95458093      12.38645231      15.91391781       0.00000000       0.00000000       0.00000000        0
O        7.91140610      13.62509754      18.65567124       0.00000000       0.00000000       0.00000000        0
O        8.67500176      10.36738964      20.51509397      -1.08568683       0.94905098       1.97475467        0
O        6.19515198      14.32598756      20.48428317      -0.07860446       2.24927137       2.37842585        0
O        6.95233667      11.14780708      18.65567124       0.00000000       0.00000000       0.00000000        0
O        5.43411564      11.14780708      15.00000000       0.00000000       0.00000000       0.00000000        0
O        6.19322616      12.86598703      16.82783562       0.00000000       0.00000000       0.00000000        0
O        8.67051662      11.90691760      16.82783562       0.00000000       0.00000000       0.00000000        0
O        9.42962714      13.62509754      15.00000000       0.00000000       0.00000000       0.00000000        0
Si       4.93911316       9.90355522      21.43046163       2.28131682      -0.34275398       2.13726107        0
Si       7.66197922       9.79745941      27.13833761       0.22063211       0.35186631      -0.95724100        0
Si       7.57803019      12.27748890      25.16788076      -0.43960496       0.71840063      -0.50891562        0
Si       4.96439480      12.32637059      23.39571903       0.71864439       1.19455401      -0.78790388        0
O        8.15127973      13.64435188      25.84775164       0.15736555       0.36833927       0.86191983        0
O        8.84537953       9.99916212      28.22212153      -0.72410072       0.37374339      -1.94251549        0
O        6.31550289      14.14470402      27.67712301       0.61622406      -1.19089314       1.74430771        0
O        7.34684803      11.17144822      26.32302720       0.24589428      -0.80121224       0.46499394        0
O        5.40243195      11.11529833      22.40529590       0.16424688       2.01420796      -0.03780330        0
O        6.19784031      12.65109086      24.39721233       0.77592710      -0.10189541       0.65527204        0
O        8.67509781      11.75301764      24.08957550       0.08241158      -0.22740750       0.74823861        0
O        9.32643595      13.55668012      22.25083268       1.39601654      -1.38882337      -0.09124745        0
Si       5.00484284       9.12755963      28.84405617       0.75377504      -0.48516933      -0.76583259        0
O        5.23411370       9.86028877      30.30326325      -0.33346408      -0.54182050       1.09719549        0
O        9.46690525      14.91805544      30.39993606       0.15905475      -0.32264370       0.47296709        0
Si      12.38645231       0.00000000      19.56958905       0.00000000       0.00000000       0.00000000        0
Si      12.38645231       2.47729046      17.74175343       0.00000000       0.00000000       0.00000000        0
Si       9.90916185       2.47729046      15.91391781       0.00000000       0.00000000       0.00000000        0
O       12.86598703       3.71593569      18.65567124       0.00000000       0.00000000       0.00000000        0
O       13.62240310       0.43367650      20.54006848      -1.02970172      -0.69868913      -0.84571401        0
O       11.14681738       4.44251624      20.48649413       0.48058564       0.84249428       1.51714882        0
O       11.90691760       1.23864523      18.65567124       0.00000000       0.00000000       0.00000000        0
O       10.38869656       1.23864523      15.00000000       0.00000000       0.00000000       0.00000000        0
O       11.14780708       2.95682518      16.82783562       0.00000000       0.00000000       0.00000000        0
O       13.62509754       1.99775575      16.82783562       0.00000000       0.00000000       0.00000000        0
O       14.38420806       3.71593569      15.00000000       0.00000000       0.00000000       0.00000000        0
Si       9.85363395       0.01058790      21.45590358       0.01703357       0.96651470       1.31720864        0
Si      12.35375878       0.11697688      27.02771067       0.80921621       0.02799047       0.22695282        0
Si      12.42420683       2.48895744      25.09384531      -0.76326850      -1.73829789       1.09767118        0
Si       9.89584751       2.55237450      23.35879228       2.31158383       1.25737233       1.56042073        0
O       12.85438559       3.70884577      26.07341869      -0.90469550      -0.10860808      -0.00099999        0
O       13.76468317       0.58872679      27.64493181       0.71819313       1.37080004       0.64939350        0
O       11.07198156       4.53298176      27.87329884      -0.21019558       1.48081910      -1.76868490        0
O       11.84311507       1.23966862      25.95470642      -0.00383383       2.10914563       0.50326241        0
O       10.18508940       1.17798583      22.53782688       0.96609022      -0.55165551       0.45130605        0
O       11.27792410       3.02235622      24.07153734       0.41391582      -0.68648558      -1.84704618        0
O       13.71798738       1.99371852      24.24267533       0.26591776       0.16449603       0.16118216        0
O       14.45006771       3.78729617      22.44514122       0.53370736      -0.13528943       0.34947925        0
Si       9.84707901       0.49752638      28.86755277       0.65795194       0.20649111      -0.16800111        0
O        9.83071313       1.68628434      30.00686716       0.77072642       0.14905826      -0.16293699        0
O       14.36113066       2.83877480      29.35139928      -1.20081785       0.08159073       0.46154376        0
Si      12.38645231       4.95458093      19.56958905       0.00000000       0.00000000       0.00000000        0
Si      12.38645231       7.43187139      17.74175343       0.00000000       0.00000000       0.00000000        0
Si       9.90916185       7.43187139      15.91391781       0.00000000       0.00000000       0.00000000        0
O       12.86598703       8.67051662      18.65567124       0.00000000       0.00000000       0.00000000        0
O       13.62001726       5.42267009      20.51897347      -0.39641445       0.52940697       0.10286657        0
O       11.14950454       9.37522712      20.47440255      -0.60997840      -1.67924762      -0.65913838        0
O       11.90691760       6.19322616      18.65567124       0.00000000       0.00000000       0.00000000        0
O       10.38869656       6.19322616      15.00000000       0.00000000       0.00000000       0.00000000        0
O       11.14780708       7.91140610      16.82783562       0.00000000       0.00000000       0.00000000        0
O       13.62509754       6.95233667      16.82783562       0.00000000       0.00000000       0.00000000        0
O       14.38420806       8.67051662      15.00000000       0.00000000       0.00000000       0.00000000        0
Si       9.91049016       4.94356758      21.40907000       1.04038727       0.42936100      -3.58080951        0
Si      12.43307080       4.91870924      27.07034837       1.73318126      -0.27273564       0.34013323        0
Si      12.50223653       7.40965298      25.10474141       0.71070427      -0.49976676      -0.50017398        0
Si       9.92666070       7.39057417      23.29588578      -1.97080749       0.10384328      -1.01324151        0
O       13.08250933       8.77495064      25.76396243      -0.51770661       0.97090630      -0.50914932        0
O       13.63908354       5.12134560      28.14853449       0.28953974       0.42489720      -0.53663698        0
O       11.20246939       9.08181778      27.51561039       1.14365881       0.14353659       0.39743780        0
O       12.20353469       6.27801240      26.22595236       0.73893291      -1.69247243      -0.90507434        0
O       10.41523994       6.17828470      22.33316963      -0.45506133       0.70675394      -0.36109657        0
O       11.14071347       7.76758315      24.29482928      -0.82939349       0.68330570       0.33220975        0
O       13.62609530       6.82907218      24.07609231      -0.25865992       0.30705429       1.72583207        0
O       14.33128445       8.68184636      22.32636674      -0.11563139       1.00820542      -1.50103528        0
Si       9.87471042       5.23966536      28.74129577      -0.78574124      -0.46800279      -0.09423327        0
O       10.49618502       6.69861777      29.32998718       1.12396696       0.77482971       0.00794162        0
O       13.75216286       9.43041641      29.95008984       0.32302224      -0.79840656      -0.46964019        0
Si      12.38645231       9.90916185      19.56958905       0.00000000       0.00000000       0.00000000        0
Si      12.38645231      12.38645231      17.74175343       0.00000000       0.00000000       0.00000000        0
Si       9.90916185      12.38645231      15.91391781       0.00000000       0.00000000       0.00000000        0
O       12.86598703      13.62509754      18.65567124       0.00000000       0.00000000       0.00000000        0
O       13.61911970      10.43128828      20.49569450      -0.60951714      -1.14860714       2.39254989        0
O       11.14392083      14.46403738      20.55224153      -0.41952861      -0.77669283      -0.43872340        0
O       11.90691760      11.14780708      18.65567124       0.00000000       0.00000000       0.00000000        0
O       10.38869656      11.14780708      15.00000000       0.00000000       0.00000000       0.00000000        0
O       11.14780708      12.86598703      16.82783562       0.00000000       0.00000000       0.00000000        0
O       13.62509754      11.90691760      16.82783562       0.00000000       0.00000000       0.00000000        0
O       14.38420806      13.62509754      15.00000000       0.00000000       0.00000000       0.00000000        0
Si       9.93656377       9.88951248      21.42023744      -0.87938809      -0.46184633      -3.23994149        0
Si      12.37364616       9.88827208      26.74430443      -0.79922312      -0.04636430      -0.37197734        0
Si      12.21493425      12.41947390      25.14881871       1.06171901      -0.19171242      -0.36075139        0
Si       9.89069940      12.36163297      23.19720008      -0.89098498      -0.90045233      -1.57045406        0
O       12.50253072      13.55781751      26.26476618      -0.05190919       1.03193035      -0.93580896        0
O       13.52689019      10.61974539      27.60978434      -0.33622708      -0.96629005      -0.18196108        0
O       11.22134643      14.87188117      28.20341076      -0.42283041      -0.28171738       1.02658730        0
O       11.66665105      11.05538655      25.83490590       1.84216166       1.21285464      -0.83044265        0
O       10.48081354      11.15587075      22.28127596      -0.61133249      -0.60273200      -0.90962016        0
O       11.07554756      12.97260260      24.12271759      -0.42602394      -0.03382495       0.19882321        0
O       13.54907769      12.04910871      24.29937930       1.38561713       1.00536649       0.63515332        0
O       14.52701878      13.69765801      22.50599539       0.81958794       0.37030819      -0.49366540        0
Si      10.23747261       9.28583518      28.85026032      -1.67089798       1.29663819       0.36893137        0
O       11.00835423       9.97044856      30.03361460      -1.39481211       0.07014475      -0.29578219        0
O       14.37293806      14.10735761      29.95014371      -1.46265415       0.45734184       0.73407253        0
H       10.67422626       5.45569876      14.45582528       0.00000000       0.00000000       0.00000000        0
H        4.18951652       9.40804402      14.45582528       0.00000000       0.00000000       0.00000000        0
H        4.18951652      14.36262494      14.45582528       0.00000000       0.00000000       0.00000000        0
H        9.14409745       9.40804402      14.45582528       0.00000000       0.00000000       0.00000000        0
H        9.14409745      14.36262494      14.45582528       0.00000000       0.00000000       0.00000000        0
H       14.09867837       4.45346309      14.45582528       0.00000000       0.00000000       0.00000000        0
H       14.09867837       9.40804402      14.45582528       0.00000000       0.00000000       0.00000000        0
H        0.76506440       5.45569876      14.45582528       0.00000000       0.00000000       0.00000000        0
H        5.71964533       0.50111783      14.45582528       0.00000000       0.00000000       0.00000000        0
H        5.71964533       5.45569876      14.45582528       0.00000000       0.00000000       0.00000000        0
H       10.67422626       0.50111783      14.45582528       0.00000000       0.00000000       0.00000000        0
H       14.09867837      14.36262494      14.45582528       0.00000000       0.00000000       0.00000000        0
H        0.76506440      10.41027968      14.45582528       0.00000000       0.00000000       0.00000000        0
H        5.71964533      10.41027968      14.45582528       0.00000000       0.00000000       0.00000000        0
H       10.67422626      10.41027968      14.45582528       0.00000000       0.00000000       0.00000000        0
H        0.76506440       0.50111783      14.45582528       0.00000000       0.00000000       0.00000000        0
H        4.18951652       4.45346309      14.45582528       0.00000000       0.00000000       0.00000000        0
H        9.14409745       4.45346309      14.45582528       0.00000000       0.00000000       0.00000000        0
C        2.55545165       3.31624448      31.71431389       0.00000000       0.00000000       0.00000000        2
C        3.65562145       2.47156203      32.28913039       0.00000000       0.00000000       0.00000000        2
C        3.53761822       1.16384319      32.66047769       0.00000000       0.00000000       0.00000000        2
N        4.75756054       3.31168184      32.35877010       0.00000000       0.00000000       0.00000000        2
C        6.12590863       2.78774953      32.56748884       0.00000000       0.00000000       0.00000000        2
C        6.34550328       2.33825666      33.99083599       0.00000000       0.00000000       0.00000000        2
C        6.45555159       1.67509484      31.58103819       0.00000000       0.00000000       0.00000000        2
Si       3.87677844       4.66653434      31.66793111       0.00000000       0.00000000       0.00000000        2